
     Program PWSCF v.7.1 starts on 12Jan2023 at 16: 3:40 

     This program is part of the open-source Quantum ESPRESSO suite
     for quantum simulation of materials; please cite
         "P. Giannozzi et al., J. Phys.:Condens. Matter 21 395502 (2009);
         "P. Giannozzi et al., J. Phys.:Condens. Matter 29 465901 (2017);
         "P. Giannozzi et al., J. Chem. Phys. 152 154105 (2020);
          URL http://www.quantum-espresso.org", 
     in publications or presentations arising from this work. More details at
     http://www.quantum-espresso.org/quote

     Parallel version (MPI), running on     1 processors

     MPI processes distributed on     1 nodes
     250858 MiB available memory on the printing compute node when the environment starts
 
     Reading input from input.pwi
Warning: card &CELL ignored
Warning: card / ignored

     Current dimensions of program PWSCF are:
     Max number of different atomic species (ntypx) = 10
     Max number of k-points (npk) =  40000
     Max angular momentum in pseudopotentials (lmaxx) =  4
     file C.pbe-n-kjpaw_psl.1.0.0.UPF: wavefunction(s)  2S 2P renormalized

     IMPORTANT: XC functional enforced from input :
     Exchange-correlation= PBE
                           (   1   4   3   4   0   0   0)
     Any further DFT definition will be discarded
     Please, verify this is what you really want

     Message from routine setup:
     using ibrav=0 with symmetry is DISCOURAGED, use correct ibrav instead
 
     Subspace diagonalization in iterative solution of the eigenvalue problem:
     a serial algorithm will be used

 
     G-vector sticks info
     --------------------
     sticks:   dense  smooth     PW     G-vecs:    dense   smooth      PW
     Sum         151     151     55                 4335     4335     873
 
     Using Slab Decomposition
 

     Title: 
     Title                                                                      


     bravais-lattice index     =            0
     lattice parameter (alat)  =       4.1574  a.u.
     unit-cell volume          =     192.3453 (a.u.)^3
     number of atoms/cell      =            4
     number of atomic types    =            1
     number of electrons       =        16.00
     number of Kohn-Sham states=           12
     kinetic-energy cutoff     =      30.0000  Ry
     charge density cutoff     =     120.0000  Ry
     scf convergence threshold =      1.0E-06
     mixing beta               =       0.7000
     number of iterations used =            8  plain     mixing
     Exchange-correlation= PBE
                           (   1   4   3   4   0   0   0)

     celldm(1)=   4.157397  celldm(2)=   0.000000  celldm(3)=   0.000000
     celldm(4)=   0.000000  celldm(5)=   0.000000  celldm(6)=   0.000000

     crystal axes: (cart. coord. in units of alat)
               a(1) = (   1.000000   0.000000   0.000000 )  
               a(2) = (  -0.500000   0.866025   0.000000 )  
               a(3) = (   0.000000   0.000000   3.090909 )  

     reciprocal axes: (cart. coord. in units 2 pi/alat)
               b(1) = (  1.000000  0.577350  0.000000 )  
               b(2) = (  0.000000  1.154701  0.000000 )  
               b(3) = (  0.000000  0.000000  0.323529 )  


     PseudoPot. # 1 for C  read from file:
     /home/ws/gt5111/Celso_QE/SSSP_precision/C.pbe-n-kjpaw_psl.1.0.0.UPF
     MD5 check sum: 5d2aebdfa2cae82b50a7e79e9516da0f
     Pseudo is Projector augmented-wave + core cor, Zval =  4.0
     Generated using "atomic" code by A. Dal Corso  v.5.1
     Shape of augmentation charge: PSQ
     Using radial grid of 1073 points,  4 beta functions with: 
                l(1) =   0
                l(2) =   0
                l(3) =   1
                l(4) =   1
     Q(r) pseudized with 0 coefficients 


     atomic species   valence    mass     pseudopotential
        C              4.00    12.01100     C ( 1.00)

     Starting magnetic structure 
     atomic species   magnetization
        C            0.500

      8 Sym. Ops., with inversion, found ( 4 have fractional translation)



   Cartesian axes

     site n.     atom                  positions (alat units)
         1           C   tau(   1) = (   0.0000000   0.0000000   0.7727273  )
         2           C   tau(   2) = (   0.0000000   0.0000000   2.3181818  )
         3           C   tau(   3) = (  -0.0000050   0.5773532   0.7727273  )
         4           C   tau(   4) = (   0.5000050   0.2886722   2.3181818  )

     number of k points=    21  Marzari-Vanderbilt smearing, width (Ry)=  0.0100
                       cart. coord. in units 2pi/alat
        k(    1) = (   0.0000000   0.0000000   0.0000000), wk =   0.0156250
        k(    2) = (   0.0000000   0.0000000   0.0808824), wk =   0.0312500
        k(    3) = (   0.0000000   0.0000000  -0.1617647), wk =   0.0156250
        k(    4) = (   0.0000000   0.2886751   0.0000000), wk =   0.0625000
        k(    5) = (   0.0000000   0.2886751   0.0808824), wk =   0.1250000
        k(    6) = (   0.0000000   0.2886751  -0.1617647), wk =   0.0625000
        k(    7) = (   0.0000000  -0.5773503   0.0000000), wk =   0.0312500
        k(    8) = (   0.0000000  -0.5773503   0.0808824), wk =   0.0625000
        k(    9) = (   0.0000000  -0.5773503  -0.1617647), wk =   0.0312500
        k(   10) = (   0.2500000   0.4330127   0.0000000), wk =   0.0312500
        k(   11) = (   0.2500000   0.4330127   0.0808824), wk =   0.0625000
        k(   12) = (   0.2500000   0.4330127  -0.1617647), wk =   0.0312500
        k(   13) = (   0.2500000  -0.1443376   0.0000000), wk =   0.0312500
        k(   14) = (   0.2500000  -0.1443376  -0.0808824), wk =   0.0625000
        k(   15) = (   0.2500000  -0.1443376   0.1617647), wk =   0.0312500
        k(   16) = (  -0.5000000   0.2886751   0.0000000), wk =   0.0156250
        k(   17) = (  -0.5000000   0.2886751  -0.0808824), wk =   0.0312500
        k(   18) = (  -0.5000000   0.2886751   0.1617647), wk =   0.0156250
        k(   19) = (  -0.2500000   0.4330127   0.0000000), wk =   0.0625000
        k(   20) = (  -0.2500000   0.4330127  -0.0808824), wk =   0.1250000
        k(   21) = (  -0.2500000   0.4330127   0.1617647), wk =   0.0625000

     Dense  grid:     4335 G-vectors     FFT dimensions: (  15,  15,  48)

     Estimated max dynamical RAM per process >      12.17 MB

     Check: negative core charge=   -0.000572
     Generating pointlists ...
     new r_m :   0.2382 (alat units)  0.9901 (a.u.) for type    1

     Initial potential from superposition of free atoms

     starting charge      15.9998, renormalised to      16.0000
     Starting wfcs are   16 randomized atomic wfcs
     Checking if some PAW data can be deallocated... 

     total cpu time spent up to now is        0.6 secs

     Self-consistent Calculation

     iteration #  1     ecut=    30.00 Ry     beta= 0.70
     CG style diagonalization
     ethr =  1.00E-02,  avg # of iterations =  3.4

     total cpu time spent up to now is        1.3 secs

     total energy              =     -73.25169515 Ry
     estimated scf accuracy    <       1.08420463 Ry

     total magnetization       =    -0.00 Bohr mag/cell
     absolute magnetization    =     0.12 Bohr mag/cell

     iteration #  2     ecut=    30.00 Ry     beta= 0.70
     CG style diagonalization
     ethr =  6.78E-03,  avg # of iterations =  3.5

     total cpu time spent up to now is        2.0 secs

     total energy              =     -73.44286316 Ry
     estimated scf accuracy    <       0.02513494 Ry

     total magnetization       =    -0.00 Bohr mag/cell
     absolute magnetization    =     0.07 Bohr mag/cell

     iteration #  3     ecut=    30.00 Ry     beta= 0.70
     CG style diagonalization
     ethr =  1.57E-04,  avg # of iterations =  3.8

     total cpu time spent up to now is        2.8 secs

     total energy              =     -73.44897670 Ry
     estimated scf accuracy    <       0.00191716 Ry

     total magnetization       =     0.00 Bohr mag/cell
     absolute magnetization    =     0.02 Bohr mag/cell

     iteration #  4     ecut=    30.00 Ry     beta= 0.70
     CG style diagonalization
     c_bands:  1 eigenvalues not converged
     ethr =  1.20E-05,  avg # of iterations =  3.6

     total cpu time spent up to now is        3.5 secs

     total energy              =     -73.44908675 Ry
     estimated scf accuracy    <       0.00000381 Ry

     total magnetization       =    -0.00 Bohr mag/cell
     absolute magnetization    =     0.00 Bohr mag/cell

     iteration #  5     ecut=    30.00 Ry     beta= 0.70
     CG style diagonalization
     c_bands:  1 eigenvalues not converged
     ethr =  2.38E-08,  avg # of iterations =  4.2
 
     Magnetic moment per site  (integrated on atomic sphere of radius R)
     1 (R=0.238)  charge=  1.5353  magn= -0.0000
     2 (R=0.238)  charge=  1.5353  magn= -0.0000
     3 (R=0.238)  charge=  1.5357  magn=  0.0000
     4 (R=0.238)  charge=  1.5357  magn=  0.0000

     total cpu time spent up to now is        4.3 secs

     End of self-consistent calculation

 ------ SPIN UP ------------


          k = 0.0000 0.0000 0.0000 (   563 PWs)   bands (ev):

   -12.8738 -12.6444  -1.2853   0.3360   6.9934   6.9940   7.0162   7.0168
    12.2759  20.5834  20.6348  20.6354

          k = 0.0000 0.0000 0.0809 (   550 PWs)   bands (ev):

   -12.8416 -12.6795  -1.0747   0.0650   7.0135   7.0141   7.0221   7.0227
    12.9574  20.5959  20.5966  20.6346

          k = 0.0000 0.0000-0.1618 (   550 PWs)   bands (ev):

   -12.7620 -12.7620  -0.5341  -0.5341   7.0134   7.0134   7.0139   7.0139
    14.7444  20.6245  20.6249  20.6250

          k = 0.0000 0.2887 0.0000 (   532 PWs)   bands (ev):

   -11.0863 -10.8833   1.0443   1.7352   1.7891   2.5627   4.1938   4.2351
    14.5792  19.1530  20.8690  21.2191

          k = 0.0000 0.2887 0.0809 (   537 PWs)   bands (ev):

   -11.0578 -10.9146   1.2374   1.7408   1.7809   2.3033   4.2082   4.2254
    15.2190  18.7716  19.4188  21.2090

          k = 0.0000 0.2887-0.1618 (   532 PWs)   bands (ev):

   -10.9870 -10.9870   1.7225   1.7225   1.7839   1.7839   4.2154   4.2154
    16.8772  16.8772  19.6144  19.6145

          k = 0.0000-0.5774 0.0000 (   542 PWs)   bands (ev):

    -6.0222  -5.9673  -5.7239  -5.6436   2.3580   2.3847   6.2902   6.8306
    11.2144  11.9563  20.6556  20.9022

          k = 0.0000-0.5774 0.0809 (   530 PWs)   bands (ev):

    -6.0083  -5.9709  -5.7174  -5.6612   2.3658   2.3832   6.3973   6.7861
    11.2501  11.7725  20.7135  20.9075

          k = 0.0000-0.5774-0.1618 (   532 PWs)   bands (ev):

    -5.9844  -5.9844  -5.6963  -5.6963   2.3751   2.3751   6.6069   6.6069
    11.4365  11.4365  20.8227  20.8228

          k = 0.2500 0.4330 0.0000 (   530 PWs)   bands (ev):

    -7.6179  -7.4591  -1.5846  -1.5409  -1.0209  -0.9877   5.4080   6.6231
    13.2589  13.7332  19.1920  21.9983

          k = 0.2500 0.4330 0.0809 (   534 PWs)   bands (ev):

    -7.5939  -7.4839  -1.5807  -1.5478  -1.0211  -0.9970   5.5726   6.4302
    13.3218  13.6590  19.6071  21.5077

          k = 0.2500 0.4330-0.1618 (   536 PWs)   bands (ev):

    -7.5395  -7.5395  -1.5607  -1.5607  -1.0094  -1.0094   5.9776   5.9776
    13.4909  13.4909  20.5447  20.5445

          k = 0.2500-0.1443 0.0000 (   532 PWs)   bands (ev):

   -11.0864 -10.8834   1.0443   1.7350   1.7889   2.5627   4.1940   4.2354
    14.5792  19.1526  20.8691  21.2193

          k = 0.2500-0.1443-0.0809 (   537 PWs)   bands (ev):

   -11.0579 -10.9146   1.2374   1.7406   1.7807   2.3033   4.2085   4.2257
    15.2190  18.7717  19.4188  20.0386

          k = 0.2500-0.1443 0.1618 (   532 PWs)   bands (ev):

   -10.9870 -10.9870   1.7224   1.7224   1.7837   1.7837   4.2157   4.2157
    16.8772  16.8772  19.6144  19.6144

          k =-0.5000 0.2887 0.0000 (   542 PWs)   bands (ev):

    -6.0224  -5.9674  -5.7238  -5.6435   2.3582   2.3849   6.2904   6.8307
    11.2142  11.9560  20.6557  20.9023

          k =-0.5000 0.2887-0.0809 (   530 PWs)   bands (ev):

    -6.0085  -5.9711  -5.7173  -5.6611   2.3660   2.3834   6.3975   6.7863
    11.2498  11.7722  20.7136  20.9076

          k =-0.5000 0.2887 0.1618 (   532 PWs)   bands (ev):

    -5.9845  -5.9845  -5.6962  -5.6962   2.3752   2.3752   6.6071   6.6071
    11.4362  11.4362  20.8228  20.8228

          k =-0.2500 0.4330 0.0000 (   530 PWs)   bands (ev):

    -7.6179  -7.4592  -1.5848  -1.5410  -1.0207  -0.9875   5.4080   6.6231
    13.2587  13.7331  19.1920  21.9985

          k =-0.2500 0.4330-0.0809 (   534 PWs)   bands (ev):

    -7.5939  -7.4839  -1.5809  -1.5480  -1.0209  -0.9968   5.5727   6.4303
    13.3216  13.6589  19.6071  21.5078

          k =-0.2500 0.4330 0.1618 (   536 PWs)   bands (ev):

    -7.5395  -7.5395  -1.5609  -1.5609  -1.0092  -1.0092   5.9777   5.9777
    13.4908  13.4907  20.5446  20.5446

 ------ SPIN DOWN ----------


          k = 0.0000 0.0000 0.0000 (   563 PWs)   bands (ev):

   -12.8728 -12.6433  -1.2842   0.3377   6.9918   6.9923   7.0146   7.0151
    12.2758  20.5844  20.6359  20.6365

          k = 0.0000 0.0000 0.0809 (   550 PWs)   bands (ev):

   -12.8406 -12.6784  -1.0735   0.0665   7.0119   7.0124   7.0205   7.0210
    12.9575  20.5977  20.6350  20.6357

          k = 0.0000 0.0000-0.1618 (   550 PWs)   bands (ev):

   -12.7609 -12.7609  -0.5327  -0.5327   7.0117   7.0117   7.0123   7.0123
    14.7451  14.7451  20.6259  20.6263

          k = 0.0000 0.2887 0.0000 (   532 PWs)   bands (ev):

   -11.0854 -10.8824   1.0455   1.7348   1.7886   2.5645   4.1927   4.2340
    14.5791  19.1554  19.6472  20.8711

          k = 0.0000 0.2887 0.0809 (   537 PWs)   bands (ev):

   -11.0569 -10.9137   1.2387   1.7403   1.7804   2.3049   4.2072   4.2244
    15.2192  18.7736  19.4214  20.0364

          k = 0.0000 0.2887-0.1618 (   532 PWs)   bands (ev):

   -10.9861 -10.9861   1.7233   1.7233   1.7841   1.7841   4.2143   4.2143
    16.8778  16.8778  19.6172  19.6173

          k = 0.0000-0.5774 0.0000 (   542 PWs)   bands (ev):

    -6.0214  -5.9664  -5.7236  -5.6434   2.3572   2.3839   6.2919   6.8325
    11.2161  11.9582  20.6582  20.9046

          k = 0.0000-0.5774 0.0809 (   530 PWs)   bands (ev):

    -6.0074  -5.9700  -5.7172  -5.6610   2.3649   2.3824   6.3990   6.7881
    11.2518  11.7743  20.7161  20.9102

          k = 0.0000-0.5774-0.1618 (   532 PWs)   bands (ev):

    -5.9835  -5.9835  -5.6961  -5.6961   2.3742   2.3742   6.6088   6.6088
    11.4382  11.4382  20.8255  20.8255

          k = 0.2500 0.4330 0.0000 (   530 PWs)   bands (ev):

    -7.6172  -7.4584  -1.5848  -1.5411  -1.0207  -0.9875   5.4095   6.6250
    13.2611  13.7357  19.1915  22.0001

          k = 0.2500 0.4330 0.0809 (   534 PWs)   bands (ev):

    -7.5932  -7.4832  -1.5809  -1.5480  -1.0209  -0.9968   5.5742   6.4321
    13.3240  13.6615  19.6069  21.5089

          k = 0.2500 0.4330-0.1618 (   536 PWs)   bands (ev):

    -7.5388  -7.5388  -1.5609  -1.5609  -1.0092  -1.0092   5.9793   5.9793
    13.4932  13.4932  20.5451  20.5451

          k = 0.2500-0.1443 0.0000 (   532 PWs)   bands (ev):

   -11.0854 -10.8824   1.0455   1.7346   1.7885   2.5645   4.1929   4.2343
    14.5790  19.1553  19.6472  20.8713

          k = 0.2500-0.1443-0.0809 (   537 PWs)   bands (ev):

   -11.0569 -10.9137   1.2387   1.7401   1.7803   2.3049   4.2074   4.2246
    15.2191  18.7739  19.4214  20.0361

          k = 0.2500-0.1443 0.1618 (   532 PWs)   bands (ev):

   -10.9861 -10.9861   1.7232   1.7232   1.7840   1.7840   4.2146   4.2146
    16.8778  16.8778  19.6171  19.6171

          k =-0.5000 0.2887 0.0000 (   542 PWs)   bands (ev):

    -6.0216  -5.9666  -5.7236  -5.6433   2.3573   2.3840   6.2921   6.8327
    11.2158  11.9578  20.6582  20.9047

          k =-0.5000 0.2887-0.0809 (   530 PWs)   bands (ev):

    -6.0076  -5.9702  -5.7171  -5.6609   2.3651   2.3825   6.3992   6.7883
    11.2515  11.7740  20.7163  20.9103

          k =-0.5000 0.2887 0.1618 (   532 PWs)   bands (ev):

    -5.9837  -5.9837  -5.6960  -5.6960   2.3744   2.3744   6.6090   6.6090
    11.4378  11.4378  20.8256  20.8256

          k =-0.2500 0.4330 0.0000 (   530 PWs)   bands (ev):

    -7.6172  -7.4584  -1.5850  -1.5413  -1.0204  -0.9873   5.4095   6.6251
    13.2609  13.7355  19.1916  22.0002

          k =-0.2500 0.4330-0.0809 (   534 PWs)   bands (ev):

    -7.5932  -7.4832  -1.5811  -1.5482  -1.0207  -0.9966   5.5742   6.4322
    13.3238  13.6613  19.6069  21.5092

          k =-0.2500 0.4330 0.1618 (   536 PWs)   bands (ev):

    -7.5388  -7.5388  -1.5611  -1.5611  -1.0089  -1.0089   5.9794   5.9794
    13.4930  13.4930  20.5452  20.5452

     the Fermi energy is     9.2626 ev

!    total energy              =     -73.44909269 Ry
     total all-electron energy =      -304.505484 Ry
     estimated scf accuracy    <       0.00000032 Ry
     smearing contrib. (-TS)   =       0.00000000 Ry
     internal energy E=F+TS    =     -73.44909269 Ry

     The total energy is F=E-TS. E is the sum of the following terms:
     one-electron contribution =     -15.70212787 Ry
     hartree contribution      =      17.73794338 Ry
     xc contribution           =     -19.68618666 Ry
     ewald contribution        =     -31.06800336 Ry
     one-center paw contrib.   =     -24.73071819 Ry

     total magnetization       =    -0.00 Bohr mag/cell
     absolute magnetization    =     0.00 Bohr mag/cell

     convergence has been achieved in   5 iterations

     Writing all to output data dir ./Title.save/
 
     init_run     :      0.44s CPU      0.49s WALL (       1 calls)
     electrons    :      3.60s CPU      3.71s WALL (       1 calls)

     Called by init_run:
     wfcinit      :      0.18s CPU      0.19s WALL (       1 calls)
     potinit      :      0.19s CPU      0.20s WALL (       1 calls)
     hinit0       :      0.06s CPU      0.08s WALL (       1 calls)

     Called by electrons:
     c_bands      :      2.37s CPU      2.45s WALL (       5 calls)
     sum_band     :      0.28s CPU      0.29s WALL (       5 calls)
     v_of_rho     :      0.04s CPU      0.04s WALL (       6 calls)
     newd         :      0.01s CPU      0.01s WALL (       6 calls)
     PAW_pot      :      1.09s CPU      1.09s WALL (       6 calls)
     mix_rho      :      0.00s CPU      0.00s WALL (       5 calls)

     Called by c_bands:
     init_us_2    :      0.03s CPU      0.03s WALL (     462 calls)
     init_us_2:cp :      0.03s CPU      0.03s WALL (     462 calls)
     ccgdiagg     :      1.90s CPU      1.98s WALL (     210 calls)
     wfcrot       :      0.61s CPU      0.63s WALL (     210 calls)

     Called by *cgdiagg:
     h_psi        :      1.96s CPU      2.02s WALL (    7518 calls)
     s_psi        :      0.25s CPU      0.26s WALL (   14826 calls)

     Called by h_psi:
     h_psi:calbec :      0.14s CPU      0.15s WALL (    7518 calls)
     vloc_psi     :      1.64s CPU      1.70s WALL (    7518 calls)
     add_vuspsi   :      0.14s CPU      0.15s WALL (    7518 calls)
     hs_1psi      :      1.58s CPU      1.64s WALL (    7308 calls)
     s_1psi       :      0.23s CPU      0.24s WALL (    7308 calls)

     General routines
     calbec       :      0.27s CPU      0.28s WALL (   15036 calls)
     fft          :      0.01s CPU      0.02s WALL (     124 calls)
     ffts         :      0.00s CPU      0.00s WALL (      10 calls)
     fftw         :      1.73s CPU      1.78s WALL (   22512 calls)
 
     Parallel routines
 
     PWSCF        :      4.10s CPU      4.44s WALL

 
   This run was terminated on:  16: 3:44  12Jan2023            

=------------------------------------------------------------------------------=
   JOB DONE.
=------------------------------------------------------------------------------=
