
     Program PWSCF v.7.1 starts on 10Jan2023 at 14:25:30 

     This program is part of the open-source Quantum ESPRESSO suite
     for quantum simulation of materials; please cite
         "P. Giannozzi et al., J. Phys.:Condens. Matter 21 395502 (2009);
         "P. Giannozzi et al., J. Phys.:Condens. Matter 29 465901 (2017);
         "P. Giannozzi et al., J. Chem. Phys. 152 154105 (2020);
          URL http://www.quantum-espresso.org", 
     in publications or presentations arising from this work. More details at
     http://www.quantum-espresso.org/quote

     Parallel version (MPI), running on     1 processors

     MPI processes distributed on     1 nodes
     250829 MiB available memory on the printing compute node when the environment starts
 
     Reading input from input.pwi
Warning: card &CELL ignored
Warning: card / ignored

     Current dimensions of program PWSCF are:
     Max number of different atomic species (ntypx) = 10
     Max number of k-points (npk) =  40000
     Max angular momentum in pseudopotentials (lmaxx) =  4
     file C.pbe-n-kjpaw_psl.1.0.0.UPF: wavefunction(s)  2S 2P renormalized

     IMPORTANT: XC functional enforced from input :
     Exchange-correlation= PBE
                           (   1   4   3   4   0   0   0)
     Any further DFT definition will be discarded
     Please, verify this is what you really want

     Message from routine setup:
     using ibrav=0 with symmetry is DISCOURAGED, use correct ibrav instead
 
     Subspace diagonalization in iterative solution of the eigenvalue problem:
     a serial algorithm will be used

 
     G-vector sticks info
     --------------------
     sticks:   dense  smooth     PW     G-vecs:    dense   smooth      PW
     Sum         151     151     55                 4335     4335     873
 
     Using Slab Decomposition
 

     Title: 
     Title                                                                      


     bravais-lattice index     =            0
     lattice parameter (alat)  =       4.1574  a.u.
     unit-cell volume          =     192.3453 (a.u.)^3
     number of atoms/cell      =            4
     number of atomic types    =            1
     number of electrons       =        16.00
     number of Kohn-Sham states=            8
     kinetic-energy cutoff     =      30.0000  Ry
     charge density cutoff     =     120.0000  Ry
     scf convergence threshold =      1.0E-06
     mixing beta               =       0.7000
     number of iterations used =            8  plain     mixing
     energy convergence thresh.=      1.0E-04
     force convergence thresh. =      1.0E-03
     Exchange-correlation= PBE
                           (   1   4   3   4   0   0   0)
     nstep                     =          200


     celldm(1)=   4.157397  celldm(2)=   0.000000  celldm(3)=   0.000000
     celldm(4)=   0.000000  celldm(5)=   0.000000  celldm(6)=   0.000000

     crystal axes: (cart. coord. in units of alat)
               a(1) = (   1.000000   0.000000   0.000000 )  
               a(2) = (  -0.500000   0.866025   0.000000 )  
               a(3) = (   0.000000   0.000000   3.090909 )  

     reciprocal axes: (cart. coord. in units 2 pi/alat)
               b(1) = (  1.000000  0.577350  0.000000 )  
               b(2) = (  0.000000  1.154701  0.000000 )  
               b(3) = (  0.000000  0.000000  0.323529 )  


     PseudoPot. # 1 for C  read from file:
     /home/ws/gt5111/Celso_QE/SSSP_precision/C.pbe-n-kjpaw_psl.1.0.0.UPF
     MD5 check sum: 5d2aebdfa2cae82b50a7e79e9516da0f
     Pseudo is Projector augmented-wave + core cor, Zval =  4.0
     Generated using "atomic" code by A. Dal Corso  v.5.1
     Shape of augmentation charge: PSQ
     Using radial grid of 1073 points,  4 beta functions with: 
                l(1) =   0
                l(2) =   0
                l(3) =   1
                l(4) =   1
     Q(r) pseudized with 0 coefficients 


     atomic species   valence    mass     pseudopotential
        C              4.00    12.01100     C ( 1.00)

      8 Sym. Ops., with inversion, found ( 4 have fractional translation)



   Cartesian axes

     site n.     atom                  positions (alat units)
         1           C   tau(   1) = (   0.0000000   0.0000000   0.7727273  )
         2           C   tau(   2) = (   0.0000000   0.0000000   2.3181818  )
         3           C   tau(   3) = (  -0.0000050   0.5773532   0.7727273  )
         4           C   tau(   4) = (   0.5000050   0.2886722   2.3181818  )

     number of k points=    21
                       cart. coord. in units 2pi/alat
        k(    1) = (   0.0000000   0.0000000   0.0000000), wk =   0.0312500
        k(    2) = (   0.0000000   0.0000000   0.0808824), wk =   0.0625000
        k(    3) = (   0.0000000   0.0000000  -0.1617647), wk =   0.0312500
        k(    4) = (   0.0000000   0.2886751   0.0000000), wk =   0.1250000
        k(    5) = (   0.0000000   0.2886751   0.0808824), wk =   0.2500000
        k(    6) = (   0.0000000   0.2886751  -0.1617647), wk =   0.1250000
        k(    7) = (   0.0000000  -0.5773503   0.0000000), wk =   0.0625000
        k(    8) = (   0.0000000  -0.5773503   0.0808824), wk =   0.1250000
        k(    9) = (   0.0000000  -0.5773503  -0.1617647), wk =   0.0625000
        k(   10) = (   0.2500000   0.4330127   0.0000000), wk =   0.0625000
        k(   11) = (   0.2500000   0.4330127   0.0808824), wk =   0.1250000
        k(   12) = (   0.2500000   0.4330127  -0.1617647), wk =   0.0625000
        k(   13) = (   0.2500000  -0.1443376   0.0000000), wk =   0.0625000
        k(   14) = (   0.2500000  -0.1443376  -0.0808824), wk =   0.1250000
        k(   15) = (   0.2500000  -0.1443376   0.1617647), wk =   0.0625000
        k(   16) = (  -0.5000000   0.2886751   0.0000000), wk =   0.0312500
        k(   17) = (  -0.5000000   0.2886751  -0.0808824), wk =   0.0625000
        k(   18) = (  -0.5000000   0.2886751   0.1617647), wk =   0.0312500
        k(   19) = (  -0.2500000   0.4330127   0.0000000), wk =   0.1250000
        k(   20) = (  -0.2500000   0.4330127  -0.0808824), wk =   0.2500000
        k(   21) = (  -0.2500000   0.4330127   0.1617647), wk =   0.1250000

     Dense  grid:     4335 G-vectors     FFT dimensions: (  15,  15,  48)

     Estimated max dynamical RAM per process >       8.03 MB

     Check: negative core charge=   -0.000572

     Initial potential from superposition of free atoms

     starting charge      15.9998, renormalised to      16.0000
     Starting wfcs are   16 randomized atomic wfcs
     Checking if some PAW data can be deallocated... 

     total cpu time spent up to now is        0.4 secs

     Self-consistent Calculation

     iteration #  1     ecut=    30.00 Ry     beta= 0.70
     CG style diagonalization
     ethr =  1.00E-02,  avg # of iterations =  3.2

     total cpu time spent up to now is        0.6 secs

     total energy              =     -73.30318488 Ry
     estimated scf accuracy    <       0.88110888 Ry

     iteration #  2     ecut=    30.00 Ry     beta= 0.70
     CG style diagonalization
     ethr =  5.51E-03,  avg # of iterations =  3.8

     total cpu time spent up to now is        0.9 secs

     total energy              =     -73.44827301 Ry
     estimated scf accuracy    <       0.00592928 Ry

     iteration #  3     ecut=    30.00 Ry     beta= 0.70
     CG style diagonalization
     ethr =  3.71E-05,  avg # of iterations =  3.5

     total cpu time spent up to now is        1.1 secs

     total energy              =     -73.44907007 Ry
     estimated scf accuracy    <       0.00040769 Ry

     iteration #  4     ecut=    30.00 Ry     beta= 0.70
     CG style diagonalization
     ethr =  2.55E-06,  avg # of iterations =  3.1

     total cpu time spent up to now is        1.4 secs

     total energy              =     -73.44909108 Ry
     estimated scf accuracy    <       0.00000116 Ry

     iteration #  5     ecut=    30.00 Ry     beta= 0.70
     CG style diagonalization
     ethr =  7.24E-09,  avg # of iterations =  4.9

     total cpu time spent up to now is        1.7 secs

     End of self-consistent calculation

          k = 0.0000 0.0000 0.0000 (   563 PWs)   bands (ev):

   -12.8745 -12.6451  -1.2855   0.3360   6.9909   6.9914   7.0137   7.0142

          k = 0.0000 0.0000 0.0809 (   550 PWs)   bands (ev):

   -12.8423 -12.6802  -1.0749   0.0649   7.0110   7.0115   7.0196   7.0201

          k = 0.0000 0.0000-0.1618 (   550 PWs)   bands (ev):

   -12.7627 -12.7627  -0.5342  -0.5342   7.0108   7.0108   7.0114   7.0114

          k = 0.0000 0.2887 0.0000 (   532 PWs)   bands (ev):

   -11.0871 -10.8841   1.0441   1.7335   1.7873   2.5628   4.1916   4.2329

          k = 0.0000 0.2887 0.0809 (   537 PWs)   bands (ev):

   -11.0586 -10.9154   1.2373   1.7390   1.7791   2.3033   4.2061   4.2233

          k = 0.0000 0.2887-0.1618 (   532 PWs)   bands (ev):

   -10.9878 -10.9878   1.7218   1.7218   1.7827   1.7827   4.2132   4.2132

          k = 0.0000-0.5774 0.0000 (   542 PWs)   bands (ev):

    -6.0232  -5.9682  -5.7251  -5.6448   2.3560   2.3827   6.2903   6.8306

          k = 0.0000-0.5774 0.0809 (   530 PWs)   bands (ev):

    -6.0093  -5.9718  -5.7186  -5.6625   2.3638   2.3812   6.3973   6.7862

          k = 0.0000-0.5774-0.1618 (   532 PWs)   bands (ev):

    -5.9853  -5.9853  -5.6975  -5.6975   2.3730   2.3730   6.6070   6.6070

          k = 0.2500 0.4330 0.0000 (   530 PWs)   bands (ev):

    -7.6188  -7.4601  -1.5862  -1.5425  -1.0222  -0.9891   5.4079   6.6232

          k = 0.2500 0.4330 0.0809 (   534 PWs)   bands (ev):

    -7.5948  -7.4849  -1.5823  -1.5494  -1.0225  -0.9984   5.5726   6.4303

          k = 0.2500 0.4330-0.1618 (   536 PWs)   bands (ev):

    -7.5404  -7.5404  -1.5623  -1.5623  -1.0107  -1.0107   5.9776   5.9776

          k = 0.2500-0.1443 0.0000 (   532 PWs)   bands (ev):

   -11.0871 -10.8841   1.0441   1.7333   1.7871   2.5628   4.1918   4.2332

          k = 0.2500-0.1443-0.0809 (   537 PWs)   bands (ev):

   -11.0586 -10.9154   1.2373   1.7388   1.7789   2.3033   4.2063   4.2235

          k = 0.2500-0.1443 0.1618 (   532 PWs)   bands (ev):

   -10.9878 -10.9878   1.7218   1.7218   1.7826   1.7826   4.2135   4.2135

          k =-0.5000 0.2887 0.0000 (   542 PWs)   bands (ev):

    -6.0233  -5.9683  -5.7251  -5.6448   2.3562   2.3828   6.2905   6.8308

          k =-0.5000 0.2887-0.0809 (   530 PWs)   bands (ev):

    -6.0094  -5.9720  -5.7186  -5.6624   2.3639   2.3814   6.3975   6.7864

          k =-0.5000 0.2887 0.1618 (   532 PWs)   bands (ev):

    -5.9854  -5.9854  -5.6975  -5.6975   2.3732   2.3732   6.6072   6.6072

          k =-0.2500 0.4330 0.0000 (   530 PWs)   bands (ev):

    -7.6189  -7.4601  -1.5864  -1.5426  -1.0220  -0.9888   5.4080   6.6232

          k =-0.2500 0.4330-0.0809 (   534 PWs)   bands (ev):

    -7.5949  -7.4849  -1.5825  -1.5496  -1.0222  -0.9981   5.5727   6.4304

          k =-0.2500 0.4330 0.1618 (   536 PWs)   bands (ev):

    -7.5405  -7.5405  -1.5625  -1.5625  -1.0105  -1.0105   5.9777   5.9777

     highest occupied level (ev):     7.0201

!    total energy              =     -73.44909408 Ry
     total all-electron energy =      -304.505485 Ry
     estimated scf accuracy    <       0.00000009 Ry

     The total energy is the sum of the following terms:
     one-electron contribution =     -15.70270478 Ry
     hartree contribution      =      17.73869591 Ry
     xc contribution           =     -19.68634624 Ry
     ewald contribution        =     -31.06800336 Ry
     one-center paw contrib.   =     -24.73073562 Ry

     convergence has been achieved in   5 iterations

     Forces acting on atoms (cartesian axes, Ry/au):

     atom    1 type  1   force =    -0.00005086    0.00002937    0.00000000
     atom    2 type  1   force =     0.00005086   -0.00002937    0.00000000
     atom    3 type  1   force =     0.00005414   -0.00003126    0.00000000
     atom    4 type  1   force =    -0.00005414    0.00003126    0.00000000

     Total force =     0.000121     Total SCF correction =     0.000016
     SCF correction compared to forces is large: reduce conv_thr to get better values

     BFGS Geometry Optimization
     Energy error            =      0.0E+00 Ry
     Gradient error          =      5.4E-05 Ry/Bohr

     bfgs converged in   1 scf cycles and   0 bfgs steps
     (criteria: energy <  1.0E-04 Ry, force <  1.0E-03 Ry/Bohr)

     End of BFGS Geometry Optimization

     Final energy             =     -73.4490940832 Ry
Begin final coordinates

ATOMIC_POSITIONS (angstrom)
C             0.0000000000        0.0000000000        1.7000000000
C             0.0000000000        0.0000000000        5.1000000000
C            -0.0000110000        1.2701769431        1.7000000000
C             1.1000110000        0.6350789453        5.1000000000
End final coordinates



     Writing all to output data dir ./Title.save/
 
     init_run     :      0.24s CPU      0.29s WALL (       1 calls)
     electrons    :      1.28s CPU      1.32s WALL (       1 calls)
     forces       :      0.02s CPU      0.03s WALL (       1 calls)

     Called by init_run:
     wfcinit      :      0.09s CPU      0.11s WALL (       1 calls)
     potinit      :      0.08s CPU      0.08s WALL (       1 calls)
     hinit0       :      0.06s CPU      0.07s WALL (       1 calls)

     Called by electrons:
     c_bands      :      0.79s CPU      0.81s WALL (       5 calls)
     sum_band     :      0.10s CPU      0.10s WALL (       5 calls)
     v_of_rho     :      0.02s CPU      0.02s WALL (       6 calls)
     newd         :      0.01s CPU      0.01s WALL (       6 calls)
     PAW_pot      :      0.45s CPU      0.45s WALL (       6 calls)
     mix_rho      :      0.00s CPU      0.00s WALL (       5 calls)

     Called by c_bands:
     init_us_2    :      0.02s CPU      0.02s WALL (     252 calls)
     init_us_2:cp :      0.02s CPU      0.02s WALL (     252 calls)
     ccgdiagg     :      0.63s CPU      0.65s WALL (     105 calls)
     wfcrot       :      0.23s CPU      0.25s WALL (     105 calls)

     Called by *cgdiagg:
     h_psi        :      0.68s CPU      0.70s WALL (    2530 calls)
     s_psi        :      0.09s CPU      0.09s WALL (    4955 calls)

     Called by h_psi:
     h_psi:calbec :      0.05s CPU      0.05s WALL (    2530 calls)
     vloc_psi     :      0.57s CPU      0.59s WALL (    2530 calls)
     add_vuspsi   :      0.05s CPU      0.05s WALL (    2530 calls)
     hs_1psi      :      0.53s CPU      0.54s WALL (    2425 calls)
     s_1psi       :      0.08s CPU      0.08s WALL (    2425 calls)

     General routines
     calbec       :      0.10s CPU      0.11s WALL (    5144 calls)
     fft          :      0.01s CPU      0.02s WALL (      77 calls)
     ffts         :      0.00s CPU      0.00s WALL (       5 calls)
     fftw         :      0.60s CPU      0.61s WALL (    7706 calls)
 
     Parallel routines
 
     PWSCF        :      1.62s CPU      1.82s WALL

 
   This run was terminated on:  14:25:31  10Jan2023            

=------------------------------------------------------------------------------=
   JOB DONE.
=------------------------------------------------------------------------------=
