
     Program PWSCF v.7.1 starts on 12May2023 at 18:25:47 

     This program is part of the open-source Quantum ESPRESSO suite
     for quantum simulation of materials; please cite
         "P. Giannozzi et al., J. Phys.:Condens. Matter 21 395502 (2009);
         "P. Giannozzi et al., J. Phys.:Condens. Matter 29 465901 (2017);
         "P. Giannozzi et al., J. Chem. Phys. 152 154105 (2020);
          URL http://www.quantum-espresso.org", 
     in publications or presentations arising from this work. More details at
     http://www.quantum-espresso.org/quote

     Parallel version (MPI), running on    16 processors

     MPI processes distributed on     1 nodes
     235785 MiB available memory on the printing compute node when the environment starts
 
     Reading input from input.pwi
Warning: card &CELL ignored
Warning: card / ignored

     Current dimensions of program PWSCF are:
     Max number of different atomic species (ntypx) = 10
     Max number of k-points (npk) =  40000
     Max angular momentum in pseudopotentials (lmaxx) =  4
     file O.pbe-n-kjpaw_psl.0.1.UPF: wavefunction(s)  2P renormalized

     IMPORTANT: XC functional enforced from input :
     Exchange-correlation= PBE
                           (   1   4   3   4   0   0   0)
     Any further DFT definition will be discarded
     Please, verify this is what you really want

     Message from routine setup:
     using ibrav=0 with symmetry is DISCOURAGED, use correct ibrav instead
 
     R & G space division:  proc/nbgrp/npool/nimage =      16
     Subspace diagonalization in iterative solution of the eigenvalue problem:
     a serial algorithm will be used

 
     Parallelization info
     --------------------
     sticks:   dense  smooth     PW     G-vecs:    dense   smooth      PW
     Min         103     103     28                 4541     4541     679
     Max         105     105     29                 4545     4545     683
     Sum        1651    1651    463                72685    72685   10889
 
     Using Slab Decomposition
 

     Title: 
     lisa                                                                       


     bravais-lattice index     =            0
     lattice parameter (alat)  =       9.9702  a.u.
     unit-cell volume          =    1157.8261 (a.u.)^3
     number of atoms/cell      =           18
     number of atomic types    =            4
     number of electrons       =        96.00
     number of Kohn-Sham states=           48
     kinetic-energy cutoff     =      60.0000  Ry
     charge density cutoff     =     240.0000  Ry
     scf convergence threshold =      1.0E-06
     mixing beta               =       0.7000
     number of iterations used =            8  plain     mixing
     energy convergence thresh.=      1.0E-04
     force convergence thresh. =      1.0E-03
     Exchange-correlation= PBE
                           (   1   4   3   4   0   0   0)
     nstep                     =          200


     celldm(1)=   9.970214  celldm(2)=   0.000000  celldm(3)=   0.000000
     celldm(4)=   0.000000  celldm(5)=   0.000000  celldm(6)=   0.000000

     crystal axes: (cart. coord. in units of alat)
               a(1) = (   1.000000   0.000000   0.000000 )  
               a(2) = (  -0.500000   0.866025   0.000000 )  
               a(3) = (   0.000000   0.000000   1.348961 )  

     reciprocal axes: (cart. coord. in units 2 pi/alat)
               b(1) = (  1.000000  0.577350  0.000000 )  
               b(2) = (  0.000000  1.154701  0.000000 )  
               b(3) = (  0.000000  0.000000  0.741311 )  


     PseudoPot. # 1 for Si read from file:
     /shared/software/chem/SSSP/1.1.2_PBE_precision/Si.pbe-n-rrkjus_psl.1.0.0.UPF
     MD5 check sum: 0b0bb1205258b0d07b9f9672cf965d36
     Pseudo is Ultrasoft + core correction, Zval =  4.0
     Generated using "atomic" code by A. Dal Corso  v.5.1
     Using radial grid of 1141 points,  6 beta functions with: 
                l(1) =   0
                l(2) =   0
                l(3) =   1
                l(4) =   1
                l(5) =   2
                l(6) =   2
     Q(r) pseudized with 0 coefficients 


     PseudoPot. # 2 for Mg read from file:
     /shared/software/chem/SSSP/1.1.2_PBE_precision/mg_pbe_v1.4.uspp.F.UPF
     MD5 check sum: 8ffbd8f729fef71095aac5bd8316fb1f
     Pseudo is Ultrasoft, Zval = 10.0
     Generated by new atomic code, or converted to UPF format
     Using radial grid of  821 points,  7 beta functions with: 
                l(1) =   0
                l(2) =   0
                l(3) =   0
                l(4) =   1
                l(5) =   1
                l(6) =   2
                l(7) =   2
     Q(r) pseudized with  8 coefficients,  rinner =    1.200   1.200   1.200
                                                       1.200   1.200

     PseudoPot. # 3 for O  read from file:
     /shared/software/chem/SSSP/1.1.2_PBE_precision/O.pbe-n-kjpaw_psl.0.1.UPF
     MD5 check sum: 0234752ac141de4415c5fc33072bef88
     Pseudo is Projector augmented-wave + core cor, Zval =  6.0
     Generated using "atomic" code by A. Dal Corso  v.5.0.99 svn rev. 10869
     Shape of augmentation charge: BESSEL
     Using radial grid of 1095 points,  4 beta functions with: 
                l(1) =   0
                l(2) =   0
                l(3) =   1
                l(4) =   1
     Q(r) pseudized with 0 coefficients 


     PseudoPot. # 4 for H  read from file:
     /shared/software/chem/SSSP/1.1.2_PBE_precision/H_ONCV_PBE-1.0.oncvpsp.upf
     MD5 check sum: 1790becc920ee074925cf490c71280fe
     Pseudo is Norm-conserving, Zval =  1.0
     Generated using ONCVPSP code by D. R. Hamann
     Using radial grid of 1166 points,  2 beta functions with: 
                l(1) =   0
                l(2) =   0

     atomic species   valence    mass     pseudopotential
        Si             4.00    28.08500     Si( 1.00)
        Mg            10.00    24.30500     Mg( 1.00)
        O              6.00    15.99900     O ( 1.00)
        H              1.00     1.00800     H ( 1.00)

      2 Sym. Ops. (no inversion) found



   Cartesian axes

     site n.     atom                  positions (alat units)
         1           Si  tau(   1) = (  -0.0000050   0.5773532   0.0979615  )
         2           Si  tau(   2) = (   0.5000050   0.2886722   0.0979615  )
         3           Mg  tau(   3) = (   0.3307100   0.0000000   0.6232873  )
         4           Mg  tau(   4) = (  -0.1653550   0.2864033   0.6232873  )
         5           Mg  tau(   5) = (   0.3346450   0.5796221   0.6232873  )
         6           O   tau(   6) = (  -0.0000050   0.5773532   0.3998589  )
         7           O   tau(   7) = (   0.5000050   0.2886722   0.3998589  )
         8           O   tau(   8) = (   0.5223100   0.0000000   1.3279978  )
         9           O   tau(   9) = (  -0.2611550   0.4523337   1.3279978  )
        10           O   tau(  10) = (   0.2388450   0.4136917   1.3279978  )
        11           O   tau(  11) = (   0.6652200   0.0000000   0.8054914  )
        12           O   tau(  12) = (  -0.3326100   0.5760974   0.8054914  )
        13           O   tau(  13) = (   0.1673900   0.2899280   0.8054914  )
        14           O   tau(  14) = (   0.0000000   0.0000000   0.4062665  )
        15           H   tau(  15) = (   0.6471700   0.0000000   0.9900832  )
        16           H   tau(  16) = (  -0.3235850   0.5604657   0.9900832  )
        17           H   tau(  17) = (   0.1764150   0.3055597   0.9900832  )
        18           H   tau(  18) = (   0.0000000   0.0000000   0.2218501  )

     --------------------------------------------
     DFT-D3 Dispersion Correction (3-body terms):
     --------------------------------------------
       Reference C6 values for interpolation: 

         atom   Coordination number   C6
         H          0.912             6.05
         H          0.000            15.18
         O          0.000            31.01
         O          0.993            25.63
         O          1.989            20.74
         Mg         0.000          1366.75
         Mg         0.963           902.54
         Mg         1.950           351.12
         Si         0.000           635.71
         Si         0.951           540.53
         Si         1.944           466.25
         Si         2.941           443.01
         Si         3.868           299.55

       Values used:

         atom   Coordination number  R0_AB[au]  C6      C8
         Si         5.392            3.583    299.55  21425.58
         Si         5.392            3.583    299.55  21425.58
         Mg        11.475            3.292    351.12  31436.69
         Mg        11.475            3.292    351.12  31436.69
         Mg        11.475            3.292    351.12  31436.69
         O          3.896            2.345     20.74    418.58
         O          3.896            2.345     20.74    418.58
         O          2.049            2.345     20.79    419.63
         O          2.049            2.345     20.79    419.63
         O          2.049            2.345     20.79    419.63
         O          3.984            2.345     20.74    418.58
         O          3.984            2.345     20.74    418.58
         O          3.984            2.345     20.74    418.58
         O          3.935            2.345     20.74    418.58
         H          1.127            2.062      6.10     73.79
         H          1.127            2.062      6.10     73.79
         H          1.127            2.062      6.10     73.79
         H          1.072            2.062      6.13     74.10

         Molecular C6 ( Ry / a.u.^6 ) =     18941.48


     number of k points=    68
                       cart. coord. in units 2pi/alat
        k(    1) = (   0.0000000   0.0000000   0.0000000), wk =   0.0092593
        k(    2) = (   0.0000000   0.0000000   0.1235519), wk =   0.0185185
        k(    3) = (   0.0000000   0.0000000   0.2471038), wk =   0.0185185
        k(    4) = (   0.0000000   0.0000000  -0.3706557), wk =   0.0092593
        k(    5) = (   0.0000000   0.1924501   0.0000000), wk =   0.0370370
        k(    6) = (   0.0000000   0.1924501   0.1235519), wk =   0.0370370
        k(    7) = (   0.0000000   0.1924501   0.2471038), wk =   0.0370370
        k(    8) = (   0.0000000   0.1924501  -0.3706557), wk =   0.0370370
        k(    9) = (   0.0000000   0.3849002   0.0000000), wk =   0.0370370
        k(   10) = (   0.0000000   0.3849002   0.1235519), wk =   0.0370370
        k(   11) = (   0.0000000   0.3849002   0.2471038), wk =   0.0370370
        k(   12) = (   0.0000000   0.3849002  -0.3706557), wk =   0.0370370
        k(   13) = (   0.0000000  -0.5773503   0.0000000), wk =   0.0185185
        k(   14) = (   0.0000000  -0.5773503   0.1235519), wk =   0.0370370
        k(   15) = (   0.0000000  -0.5773503   0.2471038), wk =   0.0370370
        k(   16) = (   0.0000000  -0.5773503  -0.3706557), wk =   0.0185185
        k(   17) = (   0.1666667   0.2886751   0.0000000), wk =   0.0185185
        k(   18) = (   0.1666667   0.2886751   0.1235519), wk =   0.0185185
        k(   19) = (   0.1666667   0.2886751   0.2471038), wk =   0.0185185
        k(   20) = (   0.1666667   0.2886751  -0.3706557), wk =   0.0185185
        k(   21) = (   0.1666667   0.4811252   0.0000000), wk =   0.0370370
        k(   22) = (   0.1666667   0.4811252   0.1235519), wk =   0.0370370
        k(   23) = (   0.1666667   0.4811252   0.2471038), wk =   0.0370370
        k(   24) = (   0.1666667   0.4811252  -0.3706557), wk =   0.0370370
        k(   25) = (   0.3333333   0.5773503   0.0000000), wk =   0.0185185
        k(   26) = (   0.3333333   0.5773503   0.1235519), wk =   0.0185185
        k(   27) = (   0.3333333   0.5773503   0.2471038), wk =   0.0185185
        k(   28) = (   0.3333333   0.5773503  -0.3706557), wk =   0.0185185
        k(   29) = (  -0.1666667   0.0962250   0.0000000), wk =   0.0185185
        k(   30) = (   0.0000000   0.1924501  -0.1235519), wk =   0.0370370
        k(   31) = (  -0.1666667   0.0962250   0.1235519), wk =   0.0370370
        k(   32) = (   0.0000000   0.1924501  -0.2471038), wk =   0.0370370
        k(   33) = (  -0.1666667   0.0962250   0.2471038), wk =   0.0370370
        k(   34) = (  -0.1666667   0.0962250  -0.3706557), wk =   0.0185185
        k(   35) = (  -0.3333333   0.1924501   0.0000000), wk =   0.0185185
        k(   36) = (   0.0000000   0.3849002  -0.1235519), wk =   0.0370370
        k(   37) = (  -0.3333333   0.1924501   0.1235519), wk =   0.0370370
        k(   38) = (   0.0000000   0.3849002  -0.2471038), wk =   0.0370370
        k(   39) = (  -0.3333333   0.1924501   0.2471038), wk =   0.0370370
        k(   40) = (  -0.3333333   0.1924501  -0.3706557), wk =   0.0185185
        k(   41) = (   0.5000000  -0.2886751   0.0000000), wk =   0.0092593
        k(   42) = (   0.5000000  -0.2886751   0.1235519), wk =   0.0185185
        k(   43) = (   0.5000000  -0.2886751   0.2471038), wk =   0.0185185
        k(   44) = (   0.5000000  -0.2886751  -0.3706557), wk =   0.0092593
        k(   45) = (  -0.1666667   0.2886751   0.0000000), wk =   0.0370370
        k(   46) = (  -0.1666667   0.2886751  -0.1235519), wk =   0.0370370
        k(   47) = (   0.1666667  -0.2886751  -0.1235519), wk =   0.0370370
        k(   48) = (   0.1666667   0.2886751  -0.1235519), wk =   0.0185185
        k(   49) = (  -0.1666667   0.2886751  -0.2471038), wk =   0.0370370
        k(   50) = (   0.1666667  -0.2886751  -0.2471038), wk =   0.0370370
        k(   51) = (   0.1666667   0.2886751  -0.2471038), wk =   0.0185185
        k(   52) = (  -0.1666667   0.2886751   0.3706557), wk =   0.0370370
        k(   53) = (  -0.1666667   0.4811252   0.0000000), wk =   0.0370370
        k(   54) = (  -0.3333333   0.3849002   0.0000000), wk =   0.0370370
        k(   55) = (  -0.1666667   0.4811252  -0.1235519), wk =   0.0370370
        k(   56) = (   0.1666667  -0.4811252  -0.1235519), wk =   0.0370370
        k(   57) = (  -0.3333333   0.3849002   0.1235519), wk =   0.0370370
        k(   58) = (   0.3333333  -0.3849002   0.1235519), wk =   0.0370370
        k(   59) = (   0.3333333   0.3849002  -0.1235519), wk =   0.0370370
        k(   60) = (  -0.1666667   0.4811252  -0.2471038), wk =   0.0370370
        k(   61) = (   0.1666667  -0.4811252  -0.2471038), wk =   0.0370370
        k(   62) = (  -0.3333333   0.3849002   0.2471038), wk =   0.0370370
        k(   63) = (   0.3333333  -0.3849002   0.2471038), wk =   0.0370370
        k(   64) = (   0.3333333   0.3849002  -0.2471038), wk =   0.0370370
        k(   65) = (  -0.1666667   0.4811252   0.3706557), wk =   0.0370370
        k(   66) = (  -0.3333333   0.3849002  -0.3706557), wk =   0.0370370
        k(   67) = (   0.3333333  -0.5773503  -0.1235519), wk =   0.0185185
        k(   68) = (   0.3333333  -0.5773503  -0.2471038), wk =   0.0185185

     Dense  grid:    72685 G-vectors     FFT dimensions: (  50,  50,  72)

     Estimated max dynamical RAM per process >      55.96 MB

     Estimated total dynamical RAM >     895.41 MB

     Check: negative core charge=   -0.000014

     Initial potential from superposition of free atoms

     starting charge      95.0981, renormalised to      96.0000
     Starting wfcs are   63 randomized atomic wfcs
     Checking if some PAW data can be deallocated... 

     total cpu time spent up to now is        3.7 secs

     Self-consistent Calculation

     iteration #  1     ecut=    60.00 Ry     beta= 0.70
     Davidson diagonalization with overlap
     ethr =  1.00E-02,  avg # of iterations =  2.0

     total cpu time spent up to now is       12.4 secs

     total energy              =    -778.67802676 Ry
     estimated scf accuracy    <       3.42272942 Ry

     iteration #  2     ecut=    60.00 Ry     beta= 0.70
     Davidson diagonalization with overlap
     ethr =  3.57E-03,  avg # of iterations =  3.0

     total cpu time spent up to now is       22.5 secs

     total energy              =    -779.70455411 Ry
     estimated scf accuracy    <       3.01059499 Ry

     iteration #  3     ecut=    60.00 Ry     beta= 0.70
     Davidson diagonalization with overlap
     ethr =  3.14E-03,  avg # of iterations =  2.0

     total cpu time spent up to now is       30.7 secs

     total energy              =    -780.19011360 Ry
     estimated scf accuracy    <       0.09539700 Ry

     iteration #  4     ecut=    60.00 Ry     beta= 0.70
     Davidson diagonalization with overlap
     ethr =  9.94E-05,  avg # of iterations =  5.0

     total cpu time spent up to now is       42.3 secs

     total energy              =    -780.26176737 Ry
     estimated scf accuracy    <       0.06665870 Ry

     iteration #  5     ecut=    60.00 Ry     beta= 0.70
     Davidson diagonalization with overlap
     ethr =  6.94E-05,  avg # of iterations =  2.0

     total cpu time spent up to now is       50.0 secs

     total energy              =    -780.26384708 Ry
     estimated scf accuracy    <       0.01113400 Ry

     iteration #  6     ecut=    60.00 Ry     beta= 0.70
     Davidson diagonalization with overlap
     ethr =  1.16E-05,  avg # of iterations =  2.0

     total cpu time spent up to now is       58.4 secs

     total energy              =    -780.26603056 Ry
     estimated scf accuracy    <       0.00039613 Ry

     iteration #  7     ecut=    60.00 Ry     beta= 0.70
     Davidson diagonalization with overlap
     ethr =  4.13E-07,  avg # of iterations =  4.8

     total cpu time spent up to now is       69.8 secs

     total energy              =    -780.26627693 Ry
     estimated scf accuracy    <       0.00036290 Ry

     iteration #  8     ecut=    60.00 Ry     beta= 0.70
     Davidson diagonalization with overlap
     ethr =  3.78E-07,  avg # of iterations =  2.0

     total cpu time spent up to now is       77.9 secs

     total energy              =    -780.26633428 Ry
     estimated scf accuracy    <       0.00000887 Ry

     iteration #  9     ecut=    60.00 Ry     beta= 0.70
     Davidson diagonalization with overlap
     ethr =  9.24E-09,  avg # of iterations =  4.5

     total cpu time spent up to now is       89.1 secs

     total energy              =    -780.26634082 Ry
     estimated scf accuracy    <       0.00000565 Ry

     iteration # 10     ecut=    60.00 Ry     beta= 0.70
     Davidson diagonalization with overlap
     ethr =  5.88E-09,  avg # of iterations =  2.0

     total cpu time spent up to now is       97.0 secs

     End of self-consistent calculation

          k = 0.0000 0.0000 0.0000 (  9177 PWs)   bands (ev):

   -67.5131 -67.5081 -67.5081 -34.3166 -34.3166 -34.3156 -34.3120 -34.2978
   -34.2903 -34.2903 -34.2728 -34.2728 -16.1643 -14.4687 -14.4683 -13.7528
   -13.2878 -13.1676 -13.1248 -12.7410 -12.7410  -5.7374  -2.0972  -2.0971
    -2.0615  -1.5548  -1.0645  -1.0644  -0.7053  -0.1352   0.5229   0.5230
     0.9740   0.9740   1.7007   1.7008   1.8072   2.1060   2.1061   2.5571
     2.5847   2.7383   2.7383   2.8521   3.3899   3.3899   4.1615   4.1615

          k = 0.0000 0.0000 0.1236 (  9123 PWs)   bands (ev):

   -67.5131 -67.5081 -67.5081 -34.3166 -34.3166 -34.3156 -34.3120 -34.2978
   -34.2903 -34.2903 -34.2728 -34.2728 -16.1619 -14.4685 -14.4681 -13.7824
   -13.2877 -13.1578 -13.1038 -12.7414 -12.7414  -5.7386  -2.3166  -2.1012
    -2.1011  -1.2887  -1.0101  -1.0100  -0.6011  -0.1214   0.4019   0.4021
     0.9890   0.9890   1.6432   1.6884   1.6885   2.1747   2.1748   2.5634
     2.5739   2.7468   2.7469   2.8471   3.3879   3.3879   4.1621   4.1621

          k = 0.0000 0.0000 0.2471 (  9111 PWs)   bands (ev):

   -67.5131 -67.5081 -67.5081 -34.3166 -34.3166 -34.3156 -34.3120 -34.2978
   -34.2903 -34.2903 -34.2728 -34.2728 -16.1570 -14.4682 -14.4678 -13.8350
   -13.2877 -13.1522 -13.0546 -12.7420 -12.7420  -5.7411  -2.5917  -2.1087
    -2.1086  -1.0870  -0.8798  -0.8798  -0.2056  -0.0934   0.1631   0.1633
     1.0280   1.0280   1.2293   1.6099   1.6100   2.3687   2.3688   2.5203
     2.6087   2.7262   2.7263   2.8327   3.3839   3.3840   4.1633   4.1633

          k = 0.0000 0.0000-0.3707 (  9082 PWs)   bands (ev):

   -67.5131 -67.5081 -67.5081 -34.3166 -34.3166 -34.3156 -34.3120 -34.2978
   -34.2903 -34.2903 -34.2728 -34.2728 -16.1545 -14.4680 -14.4676 -13.8587
   -13.2876 -13.1512 -13.0306 -12.7424 -12.7424  -5.7422  -2.6923  -2.1122
    -2.1121  -1.0477  -0.7952  -0.7952  -0.0791   0.0326   0.0328   0.1572
     0.8845   1.0532   1.0532   1.5582   1.5583   2.4985   2.5162   2.5164
     2.6278   2.6633   2.6633   2.8230   3.3821   3.3821   4.1640   4.1640

          k = 0.0000 0.1925 0.0000 (  9115 PWs)   bands (ev):

   -67.5127 -67.5083 -67.5082 -34.3240 -34.3215 -34.3075 -34.3034 -34.2959
   -34.2910 -34.2906 -34.2770 -34.2738 -16.0877 -14.6160 -14.4716 -13.7050
   -13.2718 -13.1715 -13.1189 -12.7657 -12.7562  -5.5139  -2.2743  -2.0093
    -1.9919  -1.5053  -1.1335  -1.1132  -0.6884  -0.2913   0.4910   0.5378
     0.8776   1.0291   1.6676   1.7694   1.8084   2.1329   2.1858   2.4078
     2.5213   2.6590   2.9954   3.0133   3.2387   3.3631   3.8859   4.1189

          k = 0.0000 0.1925 0.1236 (  9094 PWs)   bands (ev):

   -67.5127 -67.5083 -67.5082 -34.3240 -34.3215 -34.3075 -34.3034 -34.2959
   -34.2910 -34.2906 -34.2770 -34.2738 -16.0854 -14.6155 -14.4714 -13.7332
   -13.2741 -13.1738 -13.0877 -12.7640 -12.7563  -5.5151  -2.3255  -2.1830
    -1.9968  -1.3420  -1.0759  -0.9957  -0.5996  -0.2717   0.2833   0.5498
     0.8505   1.0312   1.5985   1.7119   1.8150   2.1282   2.2478   2.4139
     2.5538   2.6626   2.9935   3.0133   3.2400   3.3610   3.8958   4.1193

          k = 0.0000 0.1925 0.2471 (  9081 PWs)   bands (ev):

   -67.5127 -67.5083 -67.5082 -34.3240 -34.3215 -34.3075 -34.3034 -34.2959
   -34.2910 -34.2906 -34.2770 -34.2738 -16.0808 -14.6145 -14.4710 -13.7835
   -13.2786 -13.1755 -13.0346 -12.7608 -12.7561  -5.5176  -2.5312  -2.2354
    -2.0044  -1.2337  -0.9809  -0.7889  -0.2467  -0.2126   0.0490   0.3113
     0.8653   1.0556   1.2384   1.6812   1.7680   2.2293   2.3434   2.4655
     2.5721   2.6861   2.9792   3.0059   3.2419   3.3554   3.9139   4.1202

          k = 0.0000 0.1925-0.3707 (  9080 PWs)   bands (ev):

   -67.5127 -67.5083 -67.5082 -34.3240 -34.3215 -34.3075 -34.3034 -34.2959
   -34.2910 -34.2906 -34.2770 -34.2738 -16.0784 -14.6139 -14.4708 -13.8062
   -13.2808 -13.1759 -13.0109 -12.7594 -12.7558  -5.5188  -2.6221  -2.2403
    -2.0079  -1.2005  -0.9240  -0.7123  -0.1942  -0.0436   0.1055   0.1386
     0.8018   1.0079   1.0733   1.6823   1.7067   2.3082   2.3726   2.5022
     2.5700   2.7113   2.9631   2.9966   3.2432   3.3515   3.9221   4.1205

          k = 0.0000 0.3849 0.0000 (  9067 PWs)   bands (ev):

   -67.5117 -67.5091 -67.5085 -34.3301 -34.3194 -34.3015 -34.2973 -34.2954
   -34.2913 -34.2897 -34.2835 -34.2768 -15.8808 -14.9475 -14.4780 -13.5778
   -13.2852 -13.2211 -13.0475 -12.8377 -12.7837  -4.9524  -2.7364  -1.9052
    -1.7513  -1.3773  -1.2295  -1.2127  -0.7519  -0.5453   0.3569   0.4112
     0.9492   1.1190   1.5969   1.7646   1.9608   2.1403   2.2303   2.3433
     2.3668   2.6279   2.8835   3.1242   3.3331   3.4755   3.5269   3.9799

          k = 0.0000 0.3849 0.1236 (  9090 PWs)   bands (ev):

   -67.5117 -67.5091 -67.5085 -34.3301 -34.3194 -34.3015 -34.2973 -34.2954
   -34.2913 -34.2897 -34.2835 -34.2768 -15.8788 -14.9464 -14.4777 -13.6017
   -13.2961 -13.2233 -13.0199 -12.8296 -12.7831  -4.9537  -2.7436  -2.0249
    -1.7582  -1.4718  -1.2159  -0.9395  -0.6543  -0.5091   0.1616   0.4915
     0.8803   1.0705   1.4918   1.7640   1.9963   2.1223   2.2904   2.3391
     2.3923   2.6522   2.8893   3.1346   3.3404   3.4744   3.5296   3.9796

          k = 0.0000 0.3849 0.2471 (  9072 PWs)   bands (ev):

   -67.5117 -67.5091 -67.5085 -34.3301 -34.3194 -34.3015 -34.2973 -34.2954
   -34.2913 -34.2897 -34.2835 -34.2768 -15.8748 -14.9441 -14.4772 -13.6449
   -13.3155 -13.2259 -12.9732 -12.8144 -12.7814  -4.9564  -2.7624  -2.1993
    -1.7663  -1.4810  -1.1818  -0.7459  -0.4196  -0.2912  -0.0533   0.4523
     0.7139   1.0611   1.1396   1.8261   2.0318   2.1559   2.2949   2.3708
     2.4527   2.6950   2.8990   3.1572   3.3501   3.4763   3.5335   3.9787

          k = 0.0000 0.3849-0.3707 (  9074 PWs)   bands (ev):

   -67.5117 -67.5091 -67.5085 -34.3301 -34.3194 -34.3015 -34.2973 -34.2954
   -34.2913 -34.2897 -34.2835 -34.2768 -15.8727 -14.9429 -14.4769 -13.6647
   -13.3244 -13.2268 -12.9528 -12.8072 -12.7801  -4.9577  -2.7744  -2.2646
    -1.7699  -1.4783  -1.1448  -0.7025  -0.4059  -0.0985   0.0140   0.3216
     0.6943   0.8756   1.0659   1.8341   2.0337   2.2323   2.2768   2.3635
     2.4853   2.7150   2.9045   3.1694   3.3514   3.4796   3.5350   3.9781

          k = 0.0000-0.5774 0.0000 (  9058 PWs)   bands (ev):

   -67.5105 -67.5102 -67.5086 -34.3323 -34.3104 -34.3083 -34.2986 -34.2951
   -34.2906 -34.2879 -34.2816 -34.2803 -15.7021 -15.1824 -14.4812 -13.4359
   -13.3926 -13.2315 -12.9613 -12.9224 -12.7965  -4.5308  -3.1157  -1.8479
    -1.6072  -1.3030  -1.2782  -1.1769  -0.9454  -0.6076   0.2604   0.3507
     1.0426   1.1967   1.5494   1.7156   2.0448   2.1192   2.1393   2.2131
     2.5208   2.6119   2.8244   2.9256   3.2646   3.6904   3.7371   3.7609

          k = 0.0000-0.5774 0.1236 (  9094 PWs)   bands (ev):

   -67.5105 -67.5102 -67.5086 -34.3323 -34.3104 -34.3083 -34.2986 -34.2951
   -34.2906 -34.2879 -34.2816 -34.2803 -15.7004 -15.1809 -14.4809 -13.4474
   -13.4174 -13.2341 -12.9363 -12.9105 -12.7957  -4.5324  -3.1183  -1.8490
    -1.6643  -1.5448  -1.3104  -0.8445  -0.7891  -0.5812   0.0885   0.4261
     1.0125   1.1062   1.3606   1.7714   2.0759   2.1024   2.1715   2.3286
     2.4967   2.6139   2.8660   2.9227   3.2676   3.6914   3.7394   3.7552

          k = 0.0000-0.5774 0.2471 (  9098 PWs)   bands (ev):

   -67.5105 -67.5102 -67.5086 -34.3323 -34.3104 -34.3083 -34.2986 -34.2951
   -34.2906 -34.2879 -34.2816 -34.2803 -15.6970 -15.1777 -14.4803 -13.4694
   -13.4606 -13.2384 -12.8926 -12.8893 -12.7933  -4.5356  -3.1238  -1.8649
    -1.8604  -1.5768  -1.2836  -0.7572  -0.4904  -0.3220  -0.1026   0.4790
     0.8037   0.9956   1.0463   1.8468   2.0911   2.1720   2.2511   2.4010
     2.4556   2.6398   2.9014   2.9576   3.2765   3.6939   3.7425   3.7432

          k = 0.0000-0.5774-0.3707 (  9084 PWs)   bands (ev):

   -67.5105 -67.5102 -67.5086 -34.3323 -34.3104 -34.3083 -34.2986 -34.2951
   -34.2906 -34.2879 -34.2816 -34.2803 -15.6953 -15.1761 -14.4799 -13.4800
   -13.4800 -13.2401 -12.8800 -12.8730 -12.7916  -4.5372  -3.1268  -1.9368
    -1.8779  -1.5788  -1.2363  -0.7381  -0.5079  -0.0822  -0.0465   0.4706
     0.6663   0.7518   1.0448   1.8491   2.0961   2.2787   2.2902   2.3598
     2.4364   2.6635   2.8988   2.9932   3.2826   3.6952   3.7354   3.7447

          k = 0.1667 0.2887 0.0000 (  9098 PWs)   bands (ev):

   -67.5120 -67.5087 -67.5086 -34.3253 -34.3248 -34.3027 -34.2968 -34.2954
   -34.2911 -34.2908 -34.2827 -34.2755 -15.9433 -14.8537 -14.4785 -13.6175
   -13.2647 -13.2148 -13.0715 -12.8043 -12.7876  -5.1116  -2.6167  -1.9332
    -1.8008  -1.4175  -1.2187  -1.1745  -0.6980  -0.5132   0.3114   0.6240
     0.8002   1.1483   1.5926   1.8037   1.8602   2.2063   2.2084   2.3561
     2.4511   2.5143   2.9162   3.2087   3.3696   3.4193   3.4723   4.0506

          k = 0.1667 0.2887 0.1236 (  9102 PWs)   bands (ev):

   -67.5120 -67.5087 -67.5086 -34.3253 -34.3248 -34.3027 -34.2968 -34.2954
   -34.2911 -34.2908 -34.2827 -34.2755 -15.9412 -14.8526 -14.4784 -13.6429
   -13.2721 -13.2189 -13.0420 -12.7979 -12.7871  -5.1122  -2.6237  -2.0830
    -1.7975  -1.4559  -1.1411  -0.9883  -0.6442  -0.4664   0.4114   0.4166
     0.6881   1.1374   1.4821   1.7732   1.9458   2.1493   2.3221   2.3417
     2.4305   2.5782   2.9354   3.2073   3.3777   3.4000   3.5026   4.0493

          k = 0.1667 0.2887 0.2471 (  9081 PWs)   bands (ev):

   -67.5120 -67.5087 -67.5086 -34.3253 -34.3248 -34.3027 -34.2968 -34.2954
   -34.2911 -34.2908 -34.2827 -34.2755 -15.9369 -14.8508 -14.4777 -13.6885
   -13.2845 -13.2242 -12.9929 -12.7868 -12.7852  -5.1147  -2.6543  -2.2695
    -1.8048  -1.4058  -1.1246  -0.8287  -0.3364  -0.2774   0.1954   0.2314
     0.6654   1.1147   1.1559   1.8678   1.9113   2.1713   2.3270   2.3368
     2.5424   2.6198   2.9485   3.2085   3.3805   3.3851   3.5355   4.0496

          k = 0.1667 0.2887-0.3707 (  9066 PWs)   bands (ev):

   -67.5120 -67.5087 -67.5086 -34.3253 -34.3248 -34.3027 -34.2968 -34.2954
   -34.2911 -34.2908 -34.2827 -34.2755 -15.9348 -14.8501 -14.4771 -13.7093
   -13.2897 -13.2266 -12.9714 -12.7837 -12.7819  -5.1167  -2.6809  -2.3281
    -1.8154  -1.3618  -1.1408  -0.6992  -0.2782  -0.1548   0.0499   0.2641
     0.7094   0.9097   1.1027   1.8294   1.9120   2.2798   2.2864   2.3389
     2.5892   2.6047   2.9506   3.2094   3.3737   3.3950   3.5381   4.0513

          k = 0.1667 0.4811 0.0000 (  9078 PWs)   bands (ev):

   -67.5108 -67.5096 -67.5089 -34.3282 -34.3184 -34.3059 -34.2984 -34.2948
   -34.2908 -34.2878 -34.2822 -34.2785 -15.7051 -15.1749 -14.4866 -13.4757
   -13.3255 -13.2568 -12.9847 -12.8798 -12.8172  -4.5032  -3.1858  -1.8554
    -1.5626  -1.3180  -1.2551  -1.1898  -0.8575  -0.6929   0.1658   0.6118
     0.9285   1.2813   1.4812   1.7430   1.8509   2.0261   2.2583   2.2808
     2.4278   2.6083   2.8501   2.9834   3.2116   3.6641   3.7027   3.9087

          k = 0.1667 0.4811 0.1236 (  9083 PWs)   bands (ev):

   -67.5108 -67.5096 -67.5089 -34.3282 -34.3184 -34.3059 -34.2984 -34.2948
   -34.2908 -34.2878 -34.2822 -34.2785 -15.7032 -15.1733 -14.4865 -13.4944
   -13.3406 -13.2637 -12.9605 -12.8670 -12.8147  -4.5028  -3.1837  -1.8799
    -1.6021  -1.5176  -1.3052  -0.9243  -0.7394  -0.6262   0.3115   0.4163
     0.8121   1.2127   1.2700   1.7832   1.9138   2.0731   2.2738   2.3729
     2.4505   2.6169   2.8981   2.9877   3.2081   3.6604   3.7045   3.9065

          k = 0.1667 0.4811 0.2471 (  9088 PWs)   bands (ev):

   -67.5108 -67.5096 -67.5089 -34.3282 -34.3184 -34.3059 -34.2984 -34.2948
   -34.2908 -34.2878 -34.2822 -34.2785 -15.6996 -15.1706 -14.4854 -13.5299
   -13.3656 -13.2736 -12.9214 -12.8454 -12.8073  -4.5056  -3.1894  -1.9924
    -1.6593  -1.5377  -1.3502  -0.8816  -0.4096  -0.3158   0.1228   0.4083
     0.6258   0.9397   1.1734   1.8669   1.9386   2.1376   2.2717   2.4032
     2.4839   2.6557   2.9399   3.0012   3.2113   3.6584   3.7056   3.9051

          k = 0.1667 0.4811-0.3707 (  9090 PWs)   bands (ev):

   -67.5108 -67.5096 -67.5089 -34.3282 -34.3184 -34.3059 -34.2984 -34.2948
   -34.2908 -34.2878 -34.2822 -34.2785 -15.6980 -15.1695 -14.4844 -13.5466
   -13.3765 -13.2777 -12.9050 -12.8356 -12.8030  -4.5089  -3.1976  -2.0497
    -1.6735  -1.5404  -1.3532  -0.7666  -0.3723  -0.1319  -0.0377   0.4454
     0.6455   0.7584   1.1575   1.8808   1.9209   2.1258   2.3353   2.3950
     2.4683   2.6606   2.9429   3.0023   3.2178   3.6610   3.7048   3.9063

          k = 0.3333 0.5774 0.0000 (  9054 PWs)   bands (ev):

   -67.5100 -67.5097 -67.5097 -34.3191 -34.3185 -34.3184 -34.2960 -34.2960
   -34.2914 -34.2860 -34.2798 -34.2798 -15.4513 -15.4510 -14.4938 -13.3797
   -13.3327 -13.3327 -12.9138 -12.9138 -12.8610  -3.8564  -3.8561  -1.8371
    -1.4264  -1.2969  -1.2969  -0.9998  -0.9997  -0.8292   0.1093   0.8497
     1.0653   1.0654   1.5233   1.5235   1.8514   2.0330   2.0332   2.4851
     2.4851   2.5631   2.6169   3.1085   3.1085   3.7862   3.8468   3.8468

          k = 0.3333 0.5774 0.1236 (  9069 PWs)   bands (ev):

   -67.5100 -67.5097 -67.5097 -34.3191 -34.3185 -34.3184 -34.2960 -34.2960
   -34.2914 -34.2860 -34.2798 -34.2798 -15.4496 -15.4492 -14.4936 -13.3795
   -13.3543 -13.3543 -12.8927 -12.8927 -12.8616  -3.8537  -3.8534  -1.7993
    -1.4804  -1.4803  -1.4263  -0.9299  -0.7260  -0.7259   0.2686   0.7349
     0.8439   0.8440   1.5037   1.5040   1.8873   2.1043   2.1044   2.5388
     2.5957   2.5958   2.6146   3.0991   3.0991   3.7889   3.8451   3.8451

          k = 0.3333 0.5774 0.2471 (  9090 PWs)   bands (ev):

   -67.5100 -67.5097 -67.5097 -34.3191 -34.3185 -34.3184 -34.2960 -34.2960
   -34.2914 -34.2860 -34.2798 -34.2798 -15.4466 -15.4462 -14.4920 -13.3889
   -13.3888 -13.3846 -12.8586 -12.8586 -12.8585  -3.8568  -3.8565  -1.7404
    -1.6511  -1.6510  -1.4260  -0.9395  -0.3599  -0.3598   0.2169   0.5785
     0.6132   0.6133   1.4759   1.4762   2.0839   2.0840   2.0881   2.5155
     2.6096   2.6947   2.6948   3.0898   3.0898   3.7948   3.8431   3.8431

          k = 0.3333 0.5774-0.3707 (  9090 PWs)   bands (ev):

   -67.5100 -67.5097 -67.5097 -34.3191 -34.3185 -34.3184 -34.2960 -34.2960
   -34.2914 -34.2860 -34.2798 -34.2798 -15.4453 -15.4449 -14.4906 -13.4028
   -13.4028 -13.3897 -12.8549 -12.8446 -12.8446  -3.8626  -3.8623  -1.7270
    -1.7086  -1.7085  -1.4259  -0.8073  -0.2174  -0.2173  -0.0807   0.5971
     0.5972   0.6169   1.4729   1.4732   2.0091   2.0092   2.2168   2.5263
     2.6069   2.6834   2.6834   3.0940   3.0940   3.7980   3.8431   3.8431

          k =-0.1667 0.0962 0.0000 (  9115 PWs)   bands (ev):

   -67.5127 -67.5083 -67.5082 -34.3240 -34.3215 -34.3075 -34.3034 -34.2959
   -34.2910 -34.2906 -34.2770 -34.2738 -16.0878 -14.6157 -14.4719 -13.7049
   -13.2718 -13.1715 -13.1189 -12.7657 -12.7562  -5.5139  -2.2742  -2.0093
    -1.9920  -1.5053  -1.1336  -1.1131  -0.6884  -0.2912   0.4909   0.5378
     0.8776   1.0292   1.6676   1.7694   1.8084   2.1330   2.1857   2.4077
     2.5213   2.6589   2.9954   3.0133   3.2387   3.3631   3.8859   4.1188

          k = 0.0000 0.1925-0.1236 (  9094 PWs)   bands (ev):

   -67.5127 -67.5083 -67.5082 -34.3240 -34.3215 -34.3075 -34.3034 -34.2959
   -34.2910 -34.2906 -34.2770 -34.2738 -16.0854 -14.6155 -14.4714 -13.7332
   -13.2741 -13.1738 -13.0877 -12.7640 -12.7563  -5.5151  -2.3255  -2.1831
    -1.9969  -1.3420  -1.0759  -0.9957  -0.5996  -0.2717   0.2834   0.5497
     0.8505   1.0312   1.5985   1.7118   1.8151   2.1282   2.2479   2.4139
     2.5538   2.6626   2.9935   3.0132   3.2400   3.3610   3.8958   4.1193

          k =-0.1667 0.0962 0.1236 (  9094 PWs)   bands (ev):

   -67.5127 -67.5083 -67.5082 -34.3240 -34.3215 -34.3075 -34.3034 -34.2959
   -34.2910 -34.2906 -34.2770 -34.2738 -16.0854 -14.6152 -14.4717 -13.7332
   -13.2741 -13.1738 -13.0877 -12.7640 -12.7563  -5.5151  -2.3255  -2.1830
    -1.9969  -1.3420  -1.0759  -0.9957  -0.5996  -0.2716   0.2833   0.5498
     0.8505   1.0313   1.5985   1.7119   1.8151   2.1282   2.2479   2.4139
     2.5538   2.6626   2.9935   3.0132   3.2401   3.3610   3.8958   4.1193

          k = 0.0000 0.1925-0.2471 (  9081 PWs)   bands (ev):

   -67.5127 -67.5083 -67.5082 -34.3240 -34.3215 -34.3075 -34.3034 -34.2959
   -34.2910 -34.2906 -34.2770 -34.2738 -16.0808 -14.6145 -14.4710 -13.7835
   -13.2786 -13.1755 -13.0346 -12.7608 -12.7561  -5.5176  -2.5312  -2.2354
    -2.0044  -1.2336  -0.9809  -0.7890  -0.2467  -0.2126   0.0490   0.3112
     0.8654   1.0557   1.2384   1.6811   1.7681   2.2292   2.3434   2.4656
     2.5721   2.6861   2.9792   3.0059   3.2419   3.3554   3.9139   4.1202

          k =-0.1667 0.0962 0.2471 (  9081 PWs)   bands (ev):

   -67.5127 -67.5083 -67.5082 -34.3240 -34.3215 -34.3075 -34.3034 -34.2959
   -34.2910 -34.2906 -34.2770 -34.2738 -16.0808 -14.6141 -14.4713 -13.7835
   -13.2786 -13.1755 -13.0346 -12.7608 -12.7561  -5.5176  -2.5312  -2.2353
    -2.0045  -1.2337  -0.9809  -0.7890  -0.2467  -0.2125   0.0489   0.3113
     0.8653   1.0557   1.2384   1.6811   1.7681   2.2292   2.3433   2.4656
     2.5721   2.6860   2.9792   3.0059   3.2420   3.3554   3.9139   4.1202

          k =-0.1667 0.0962-0.3707 (  9080 PWs)   bands (ev):

   -67.5127 -67.5083 -67.5082 -34.3240 -34.3215 -34.3075 -34.3034 -34.2959
   -34.2910 -34.2906 -34.2770 -34.2738 -16.0784 -14.6136 -14.4711 -13.8062
   -13.2808 -13.1759 -13.0109 -12.7594 -12.7558  -5.5188  -2.6221  -2.2402
    -2.0080  -1.2005  -0.9240  -0.7123  -0.1942  -0.0437   0.1055   0.1386
     0.8018   1.0079   1.0734   1.6823   1.7066   2.3082   2.3726   2.5021
     2.5701   2.7113   2.9631   2.9966   3.2433   3.3514   3.9221   4.1205

          k =-0.3333 0.1925 0.0000 (  9067 PWs)   bands (ev):

   -67.5117 -67.5091 -67.5085 -34.3301 -34.3194 -34.3015 -34.2973 -34.2954
   -34.2914 -34.2897 -34.2835 -34.2768 -15.8809 -14.9471 -14.4783 -13.5778
   -13.2852 -13.2211 -13.0475 -12.8377 -12.7837  -4.9525  -2.7361  -1.9052
    -1.7514  -1.3773  -1.2295  -1.2127  -0.7519  -0.5453   0.3567   0.4113
     0.9492   1.1191   1.5968   1.7645   1.9609   2.1404   2.2303   2.3433
     2.3667   2.6279   2.8835   3.1242   3.3331   3.4755   3.5269   3.9799

          k = 0.0000 0.3849-0.1236 (  9090 PWs)   bands (ev):

   -67.5117 -67.5091 -67.5085 -34.3301 -34.3194 -34.3015 -34.2973 -34.2954
   -34.2913 -34.2897 -34.2835 -34.2768 -15.8788 -14.9464 -14.4777 -13.6017
   -13.2961 -13.2233 -13.0199 -12.8296 -12.7831  -4.9537  -2.7436  -2.0249
    -1.7582  -1.4718  -1.2159  -0.9396  -0.6542  -0.5091   0.1616   0.4915
     0.8802   1.0705   1.4918   1.7639   1.9963   2.1223   2.2904   2.3391
     2.3923   2.6522   2.8893   3.1346   3.3404   3.4744   3.5296   3.9796

          k =-0.3333 0.1925 0.1236 (  9090 PWs)   bands (ev):

   -67.5117 -67.5091 -67.5085 -34.3301 -34.3194 -34.3015 -34.2973 -34.2954
   -34.2914 -34.2897 -34.2835 -34.2768 -15.8789 -14.9460 -14.4780 -13.6017
   -13.2961 -13.2233 -13.0199 -12.8296 -12.7831  -4.9538  -2.7433  -2.0249
    -1.7584  -1.4718  -1.2159  -0.9395  -0.6543  -0.5090   0.1616   0.4914
     0.8803   1.0707   1.4918   1.7639   1.9964   2.1223   2.2904   2.3390
     2.3923   2.6522   2.8893   3.1346   3.3404   3.4744   3.5296   3.9796

          k = 0.0000 0.3849-0.2471 (  9072 PWs)   bands (ev):

   -67.5117 -67.5091 -67.5085 -34.3301 -34.3194 -34.3015 -34.2973 -34.2954
   -34.2913 -34.2897 -34.2835 -34.2768 -15.8748 -14.9441 -14.4772 -13.6449
   -13.3155 -13.2259 -12.9732 -12.8144 -12.7814  -4.9564  -2.7624  -2.1993
    -1.7663  -1.4810  -1.1818  -0.7459  -0.4195  -0.2912  -0.0533   0.4523
     0.7139   1.0611   1.1397   1.8260   2.0318   2.1559   2.2950   2.3709
     2.4527   2.6950   2.8990   3.1571   3.3501   3.4763   3.5335   3.9787

          k =-0.3333 0.1925 0.2471 (  9072 PWs)   bands (ev):

   -67.5117 -67.5091 -67.5085 -34.3301 -34.3194 -34.3015 -34.2973 -34.2954
   -34.2914 -34.2897 -34.2835 -34.2768 -15.8749 -14.9437 -14.4775 -13.6449
   -13.3155 -13.2259 -12.9732 -12.8144 -12.7814  -4.9565  -2.7621  -2.1992
    -1.7664  -1.4810  -1.1817  -0.7459  -0.4195  -0.2912  -0.0533   0.4523
     0.7138   1.0614   1.1397   1.8260   2.0319   2.1559   2.2948   2.3708
     2.4527   2.6950   2.8990   3.1571   3.3501   3.4763   3.5335   3.9787

          k =-0.3333 0.1925-0.3707 (  9074 PWs)   bands (ev):

   -67.5117 -67.5091 -67.5085 -34.3301 -34.3194 -34.3015 -34.2973 -34.2954
   -34.2914 -34.2897 -34.2835 -34.2768 -15.8728 -14.9425 -14.4772 -13.6647
   -13.3244 -13.2268 -12.9528 -12.8072 -12.7801  -4.9578  -2.7742  -2.2645
    -1.7701  -1.4784  -1.1447  -0.7026  -0.4059  -0.0986   0.0140   0.3216
     0.6943   0.8755   1.0662   1.8341   2.0337   2.2322   2.2767   2.3635
     2.4853   2.7150   2.9046   3.1694   3.3514   3.4796   3.5350   3.9781

          k = 0.5000-0.2887 0.0000 (  9058 PWs)   bands (ev):

   -67.5105 -67.5102 -67.5086 -34.3323 -34.3104 -34.3083 -34.2986 -34.2951
   -34.2906 -34.2879 -34.2816 -34.2803 -15.7024 -15.1819 -14.4815 -13.4359
   -13.3927 -13.2314 -12.9613 -12.9224 -12.7965  -4.5311  -3.1152  -1.8479
    -1.6075  -1.3031  -1.2782  -1.1770  -0.9453  -0.6075   0.2602   0.3508
     1.0427   1.1970   1.5493   1.7156   2.0446   2.1191   2.1395   2.2130
     2.5207   2.6119   2.8244   2.9256   3.2646   3.6904   3.7372   3.7609

          k = 0.5000-0.2887 0.1236 (  9094 PWs)   bands (ev):

   -67.5105 -67.5102 -67.5086 -34.3323 -34.3104 -34.3083 -34.2986 -34.2951
   -34.2906 -34.2879 -34.2816 -34.2803 -15.7007 -15.1803 -14.4812 -13.4473
   -13.4175 -13.2341 -12.9363 -12.9105 -12.7957  -4.5327  -3.1178  -1.8489
    -1.6644  -1.5450  -1.3103  -0.8444  -0.7892  -0.5812   0.0884   0.4260
     1.0126   1.1065   1.3606   1.7714   2.0757   2.1024   2.1714   2.3286
     2.4967   2.6139   2.8660   2.9227   3.2676   3.6914   3.7394   3.7551

          k = 0.5000-0.2887 0.2471 (  9098 PWs)   bands (ev):

   -67.5105 -67.5102 -67.5086 -34.3323 -34.3104 -34.3083 -34.2986 -34.2951
   -34.2906 -34.2879 -34.2816 -34.2803 -15.6973 -15.1771 -14.4806 -13.4693
   -13.4607 -13.2384 -12.8926 -12.8893 -12.7933  -4.5359  -3.1233  -1.8649
    -1.8604  -1.5770  -1.2836  -0.7572  -0.4904  -0.3221  -0.1026   0.4789
     0.8038   0.9956   1.0467   1.8468   2.0908   2.1721   2.2510   2.4011
     2.4556   2.6398   2.9014   2.9576   3.2765   3.6939   3.7425   3.7432

          k = 0.5000-0.2887-0.3707 (  9084 PWs)   bands (ev):

   -67.5105 -67.5102 -67.5086 -34.3323 -34.3104 -34.3083 -34.2986 -34.2951
   -34.2906 -34.2879 -34.2816 -34.2803 -15.6956 -15.1755 -14.4803 -13.4800
   -13.4800 -13.2401 -12.8800 -12.8730 -12.7916  -4.5375  -3.1263  -1.9369
    -1.8778  -1.5790  -1.2363  -0.7382  -0.5079  -0.0823  -0.0465   0.4706
     0.6663   0.7518   1.0452   1.8490   2.0959   2.2786   2.2902   2.3598
     2.4364   2.6635   2.8988   2.9932   3.2826   3.6952   3.7354   3.7447

          k =-0.1667 0.2887 0.0000 (  9098 PWs)   bands (ev):

   -67.5120 -67.5087 -67.5086 -34.3253 -34.3248 -34.3027 -34.2968 -34.2953
   -34.2911 -34.2908 -34.2826 -34.2756 -15.9434 -14.8534 -14.4788 -13.6175
   -13.2647 -13.2148 -13.0714 -12.8043 -12.7876  -5.1117  -2.6165  -1.9332
    -1.8008  -1.4175  -1.2187  -1.1745  -0.6980  -0.5131   0.3113   0.6241
     0.8001   1.1484   1.5925   1.8036   1.8603   2.2063   2.2084   2.3560
     2.4512   2.5142   2.9162   3.2087   3.3696   3.4193   3.4723   4.0506

          k =-0.1667 0.2887-0.1236 (  9102 PWs)   bands (ev):

   -67.5120 -67.5087 -67.5086 -34.3253 -34.3248 -34.3027 -34.2968 -34.2953
   -34.2911 -34.2908 -34.2826 -34.2756 -15.9412 -14.8523 -14.4787 -13.6429
   -13.2721 -13.2189 -13.0420 -12.7979 -12.7871  -5.1122  -2.6236  -2.0830
    -1.7975  -1.4559  -1.1411  -0.9884  -0.6442  -0.4664   0.4114   0.4165
     0.6880   1.1375   1.4821   1.7731   1.9459   2.1493   2.3221   2.3416
     2.4305   2.5781   2.9354   3.2073   3.3777   3.4000   3.5026   4.0493

          k = 0.1667-0.2887-0.1236 (  9102 PWs)   bands (ev):

   -67.5120 -67.5087 -67.5086 -34.3253 -34.3248 -34.3027 -34.2968 -34.2953
   -34.2911 -34.2908 -34.2826 -34.2756 -15.9413 -14.8527 -14.4782 -13.6429
   -13.2703 -13.2195 -13.0426 -12.7991 -12.7864  -5.1136  -2.6304  -2.0848
    -1.8118  -1.4084  -1.1908  -0.9564  -0.5966  -0.4643   0.0714   0.7193
     0.7706   1.0786   1.5613   1.7852   1.8379   2.1647   2.2243   2.4139
     2.4984   2.4999   2.9151   3.2101   3.3666   3.4280   3.4756   4.0524

          k = 0.1667 0.2887-0.1236 (  9102 PWs)   bands (ev):

   -67.5120 -67.5087 -67.5086 -34.3253 -34.3248 -34.3027 -34.2968 -34.2954
   -34.2911 -34.2908 -34.2827 -34.2755 -15.9413 -14.8530 -14.4779 -13.6429
   -13.2703 -13.2195 -13.0426 -12.7991 -12.7864  -5.1136  -2.6306  -2.0848
    -1.8118  -1.4083  -1.1908  -0.9565  -0.5966  -0.4644   0.0715   0.7193
     0.7707   1.0785   1.5614   1.7851   1.8380   2.1647   2.2243   2.4140
     2.4984   2.4998   2.9151   3.2101   3.3666   3.4280   3.4756   4.0524

          k =-0.1667 0.2887-0.2471 (  9081 PWs)   bands (ev):

   -67.5120 -67.5087 -67.5086 -34.3253 -34.3248 -34.3027 -34.2968 -34.2953
   -34.2911 -34.2908 -34.2826 -34.2756 -15.9370 -14.8505 -14.4780 -13.6885
   -13.2845 -13.2242 -12.9929 -12.7868 -12.7852  -5.1147  -2.6541  -2.2694
    -1.8049  -1.4058  -1.1245  -0.8287  -0.3363  -0.2774   0.1953   0.2315
     0.6653   1.1149   1.1559   1.8677   1.9114   2.1713   2.3270   2.3368
     2.5424   2.6196   2.9486   3.2085   3.3805   3.3851   3.5355   4.0495

          k = 0.1667-0.2887-0.2471 (  9081 PWs)   bands (ev):

   -67.5120 -67.5087 -67.5086 -34.3253 -34.3248 -34.3027 -34.2968 -34.2953
   -34.2911 -34.2908 -34.2826 -34.2756 -15.9370 -14.8509 -14.4775 -13.6885
   -13.2828 -13.2252 -12.9931 -12.7879 -12.7846  -5.1162  -2.6625  -2.2656
    -1.8191  -1.3725  -1.1737  -0.6735  -0.3635  -0.3281  -0.1258   0.5244
     0.7393   1.0762   1.1919   1.7832   1.9221   2.2190   2.2494   2.4179
     2.5451   2.5494   2.9363   3.2097   3.3676   3.4184   3.5087   4.0529

          k = 0.1667 0.2887-0.2471 (  9081 PWs)   bands (ev):

   -67.5120 -67.5087 -67.5086 -34.3253 -34.3248 -34.3027 -34.2968 -34.2954
   -34.2911 -34.2908 -34.2827 -34.2755 -15.9370 -14.8512 -14.4772 -13.6885
   -13.2828 -13.2252 -12.9931 -12.7879 -12.7846  -5.1161  -2.6626  -2.2656
    -1.8190  -1.3725  -1.1738  -0.6735  -0.3636  -0.3280  -0.1257   0.5243
     0.7394   1.0761   1.1919   1.7831   1.9221   2.2190   2.2494   2.4180
     2.5452   2.5493   2.9362   3.2097   3.3676   3.4184   3.5087   4.0529

          k =-0.1667 0.2887 0.3707 (  9066 PWs)   bands (ev):

   -67.5120 -67.5087 -67.5086 -34.3253 -34.3248 -34.3027 -34.2968 -34.2953
   -34.2911 -34.2908 -34.2826 -34.2756 -15.9349 -14.8498 -14.4774 -13.7093
   -13.2897 -13.2266 -12.9714 -12.7837 -12.7819  -5.1167  -2.6808  -2.3280
    -1.8154  -1.3619  -1.1407  -0.6992  -0.2781  -0.1549   0.0499   0.2641
     0.7094   0.9096   1.1028   1.8295   1.9120   2.2797   2.2865   2.3388
     2.5893   2.6046   2.9506   3.2094   3.3737   3.3950   3.5381   4.0513

          k =-0.1667 0.4811 0.0000 (  9078 PWs)   bands (ev):

   -67.5108 -67.5096 -67.5089 -34.3282 -34.3184 -34.3059 -34.2984 -34.2948
   -34.2908 -34.2878 -34.2822 -34.2785 -15.7051 -15.1748 -14.4867 -13.4757
   -13.3255 -13.2568 -12.9847 -12.8798 -12.8171  -4.5033  -3.1857  -1.8554
    -1.5626  -1.3181  -1.2551  -1.1899  -0.8575  -0.6929   0.1658   0.6118
     0.9284   1.2813   1.4811   1.7429   1.8509   2.0261   2.2582   2.2808
     2.4278   2.6083   2.8501   2.9834   3.2116   3.6641   3.7027   3.9087

          k =-0.3333 0.3849 0.0000 (  9078 PWs)   bands (ev):

   -67.5108 -67.5096 -67.5089 -34.3282 -34.3184 -34.3059 -34.2984 -34.2949
   -34.2908 -34.2878 -34.2822 -34.2785 -15.7053 -15.1745 -14.4869 -13.4757
   -13.3255 -13.2568 -12.9847 -12.8798 -12.8172  -4.5034  -3.1855  -1.8554
    -1.5628  -1.3181  -1.2551  -1.1899  -0.8574  -0.6929   0.1658   0.6118
     0.9285   1.2814   1.4811   1.7428   1.8509   2.0261   2.2582   2.2808
     2.4278   2.6083   2.8501   2.9834   3.2116   3.6641   3.7027   3.9087

          k =-0.1667 0.4811-0.1236 (  9083 PWs)   bands (ev):

   -67.5108 -67.5096 -67.5089 -34.3282 -34.3184 -34.3059 -34.2984 -34.2948
   -34.2908 -34.2878 -34.2822 -34.2785 -15.7032 -15.1732 -14.4866 -13.4944
   -13.3406 -13.2637 -12.9605 -12.8670 -12.8147  -4.5028  -3.1836  -1.8800
    -1.6021  -1.5176  -1.3051  -0.9243  -0.7393  -0.6262   0.3115   0.4164
     0.8120   1.2128   1.2701   1.7832   1.9138   2.0731   2.2738   2.3728
     2.4505   2.6169   2.8981   2.9877   3.2081   3.6604   3.7045   3.9064

          k = 0.1667-0.4811-0.1236 (  9083 PWs)   bands (ev):

   -67.5108 -67.5096 -67.5089 -34.3282 -34.3184 -34.3059 -34.2984 -34.2948
   -34.2908 -34.2878 -34.2822 -34.2785 -15.7035 -15.1737 -14.4857 -13.4945
   -13.3394 -13.2627 -12.9618 -12.8682 -12.8143  -4.5066  -3.1933  -1.8919
    -1.5793  -1.5150  -1.3183  -0.8694  -0.7124  -0.6046  -0.0666   0.6579
     0.9292   1.2144   1.4218   1.7865   1.8357   2.0403   2.2314   2.3070
     2.4408   2.6183   2.8505   2.9813   3.2159   3.6669   3.7024   3.9099

          k =-0.3333 0.3849 0.1236 (  9083 PWs)   bands (ev):

   -67.5108 -67.5096 -67.5089 -34.3282 -34.3184 -34.3059 -34.2984 -34.2949
   -34.2908 -34.2878 -34.2822 -34.2785 -15.7036 -15.1734 -14.4859 -13.4945
   -13.3394 -13.2627 -12.9618 -12.8682 -12.8143  -4.5067  -3.1930  -1.8919
    -1.5793  -1.5151  -1.3183  -0.8694  -0.7124  -0.6046  -0.0666   0.6578
     0.9293   1.2145   1.4218   1.7864   1.8357   2.0403   2.2313   2.3069
     2.4409   2.6183   2.8505   2.9813   3.2159   3.6669   3.7024   3.9099

          k = 0.3333-0.3849 0.1236 (  9083 PWs)   bands (ev):

   -67.5108 -67.5096 -67.5089 -34.3282 -34.3184 -34.3059 -34.2984 -34.2949
   -34.2908 -34.2878 -34.2822 -34.2785 -15.7034 -15.1729 -14.4868 -13.4944
   -13.3406 -13.2637 -12.9605 -12.8670 -12.8147  -4.5030  -3.1833  -1.8800
    -1.6022  -1.5176  -1.3051  -0.9243  -0.7394  -0.6261   0.3115   0.4163
     0.8121   1.2129   1.2701   1.7831   1.9138   2.0732   2.2737   2.3728
     2.4505   2.6169   2.8981   2.9877   3.2081   3.6604   3.7045   3.9064

          k = 0.3333 0.3849-0.1236 (  9083 PWs)   bands (ev):

   -67.5108 -67.5096 -67.5089 -34.3282 -34.3184 -34.3059 -34.2984 -34.2948
   -34.2908 -34.2878 -34.2822 -34.2785 -15.7034 -15.1738 -14.4857 -13.4945
   -13.3394 -13.2627 -12.9618 -12.8682 -12.8143  -4.5065  -3.1934  -1.8919
    -1.5793  -1.5150  -1.3183  -0.8694  -0.7124  -0.6046  -0.0666   0.6579
     0.9292   1.2143   1.4218   1.7866   1.8357   2.0403   2.2315   2.3069
     2.4409   2.6183   2.8505   2.9813   3.2159   3.6669   3.7024   3.9099

          k =-0.1667 0.4811-0.2471 (  9088 PWs)   bands (ev):

   -67.5108 -67.5096 -67.5089 -34.3282 -34.3184 -34.3059 -34.2984 -34.2948
   -34.2908 -34.2878 -34.2822 -34.2785 -15.6997 -15.1705 -14.4855 -13.5299
   -13.3656 -13.2736 -12.9214 -12.8454 -12.8073  -4.5057  -3.1893  -1.9924
    -1.6593  -1.5377  -1.3501  -0.8816  -0.4095  -0.3158   0.1228   0.4083
     0.6258   0.9397   1.1734   1.8669   1.9385   2.1376   2.2717   2.4032
     2.4839   2.6557   2.9398   3.0012   3.2113   3.6584   3.7056   3.9051

          k = 0.1667-0.4811-0.2471 (  9088 PWs)   bands (ev):

   -67.5108 -67.5096 -67.5089 -34.3282 -34.3184 -34.3059 -34.2984 -34.2948
   -34.2908 -34.2878 -34.2822 -34.2785 -15.6999 -15.1709 -14.4846 -13.5297
   -13.3646 -13.2734 -12.9218 -12.8459 -12.8078  -4.5094  -3.1993  -1.9933
    -1.6537  -1.5461  -1.3585  -0.6401  -0.4934  -0.3754  -0.2204   0.6124
     0.7656   1.0608   1.1497   1.8420   1.9157   2.0710   2.2666   2.3967
     2.4601   2.6332   2.9027   2.9858   3.2187   3.6658   3.7034   3.9088

          k =-0.3333 0.3849 0.2471 (  9088 PWs)   bands (ev):

   -67.5108 -67.5096 -67.5089 -34.3282 -34.3184 -34.3059 -34.2984 -34.2949
   -34.2908 -34.2878 -34.2822 -34.2785 -15.7001 -15.1707 -14.4848 -13.5297
   -13.3646 -13.2734 -12.9218 -12.8459 -12.8078  -4.5095  -3.1991  -1.9933
    -1.6537  -1.5462  -1.3584  -0.6401  -0.4934  -0.3754  -0.2204   0.6123
     0.7657   1.0608   1.1499   1.8420   1.9155   2.0710   2.2666   2.3966
     2.4601   2.6332   2.9026   2.9859   3.2187   3.6658   3.7034   3.9088

          k = 0.3333-0.3849 0.2471 (  9088 PWs)   bands (ev):

   -67.5108 -67.5096 -67.5089 -34.3282 -34.3184 -34.3059 -34.2984 -34.2949
   -34.2908 -34.2878 -34.2822 -34.2785 -15.6998 -15.1702 -14.4857 -13.5299
   -13.3656 -13.2736 -12.9214 -12.8454 -12.8073  -4.5058  -3.1891  -1.9924
    -1.6593  -1.5378  -1.3501  -0.8816  -0.4095  -0.3158   0.1227   0.4082
     0.6258   0.9397   1.1736   1.8667   1.9385   2.1375   2.2716   2.4032
     2.4839   2.6558   2.9399   3.0012   3.2113   3.6584   3.7056   3.9051

          k = 0.3333 0.3849-0.2471 (  9088 PWs)   bands (ev):

   -67.5108 -67.5096 -67.5089 -34.3282 -34.3184 -34.3059 -34.2984 -34.2948
   -34.2908 -34.2878 -34.2822 -34.2785 -15.6999 -15.1711 -14.4846 -13.5297
   -13.3646 -13.2734 -12.9218 -12.8459 -12.8078  -4.5093  -3.1994  -1.9933
    -1.6536  -1.5461  -1.3585  -0.6401  -0.4934  -0.3754  -0.2204   0.6124
     0.7656   1.0608   1.1496   1.8419   1.9158   2.0710   2.2666   2.3966
     2.4601   2.6332   2.9027   2.9858   3.2187   3.6658   3.7034   3.9088

          k =-0.1667 0.4811 0.3707 (  9090 PWs)   bands (ev):

   -67.5108 -67.5096 -67.5089 -34.3282 -34.3184 -34.3059 -34.2984 -34.2948
   -34.2908 -34.2878 -34.2822 -34.2785 -15.6980 -15.1694 -14.4845 -13.5466
   -13.3765 -13.2777 -12.9050 -12.8356 -12.8030  -4.5090  -3.1975  -2.0497
    -1.6735  -1.5404  -1.3532  -0.7666  -0.3723  -0.1319  -0.0378   0.4455
     0.6455   0.7584   1.1575   1.8808   1.9208   2.1258   2.3353   2.3950
     2.4683   2.6606   2.9428   3.0023   3.2178   3.6610   3.7048   3.9063

          k =-0.3333 0.3849-0.3707 (  9090 PWs)   bands (ev):

   -67.5108 -67.5096 -67.5089 -34.3282 -34.3184 -34.3059 -34.2984 -34.2949
   -34.2908 -34.2878 -34.2822 -34.2785 -15.6982 -15.1691 -14.4847 -13.5466
   -13.3765 -13.2777 -12.9050 -12.8356 -12.8030  -4.5091  -3.1973  -2.0497
    -1.6735  -1.5405  -1.3532  -0.7666  -0.3723  -0.1320  -0.0378   0.4455
     0.6455   0.7584   1.1578   1.8808   1.9207   2.1258   2.3353   2.3950
     2.4683   2.6606   2.9429   3.0023   3.2178   3.6610   3.7048   3.9063

          k = 0.3333-0.5774-0.1236 (  9069 PWs)   bands (ev):

   -67.5100 -67.5097 -67.5097 -34.3191 -34.3185 -34.3184 -34.2960 -34.2960
   -34.2914 -34.2860 -34.2798 -34.2798 -15.4501 -15.4497 -14.4924 -13.3849
   -13.3501 -13.3500 -12.8964 -12.8964 -12.8573  -3.8620  -3.8617  -1.8218
    -1.4651  -1.4650  -1.4263  -0.7838  -0.7837  -0.6849  -0.1297   0.7669
     1.1490   1.1491   1.4505   1.4507   1.9670   1.9671   2.0325   2.4745
     2.4746   2.5696   2.6143   3.1103   3.1103   3.7895   3.8468   3.8468

          k = 0.3333-0.5774-0.2471 (  9090 PWs)   bands (ev):

   -67.5100 -67.5097 -67.5097 -34.3191 -34.3185 -34.3184 -34.2960 -34.2960
   -34.2914 -34.2860 -34.2798 -34.2798 -15.4471 -15.4467 -14.4908 -13.3899
   -13.3851 -13.3851 -12.8618 -12.8618 -12.8543  -3.8652  -3.8649  -1.7699
    -1.6426  -1.6425  -1.4260  -0.6133  -0.4475  -0.4474  -0.2916   0.6792
     0.9011   0.9011   1.4586   1.4589   1.9581   1.9582   2.1905   2.5569
     2.5759   2.5760   2.6092   3.1045   3.1045   3.7954   3.8451   3.8451

     highest occupied level (ev):     4.1640

!    total energy              =    -780.26634120 Ry
     estimated scf accuracy    <       0.00000045 Ry

     The total energy is the sum of the following terms:
     one-electron contribution =    -521.39426789 Ry
     hartree contribution      =     297.30087019 Ry
     xc contribution           =    -134.73970457 Ry
     ewald contribution        =    -335.78159238 Ry
     DFT-D3 Dispersion         =      -0.14612054 Ry
     one-center paw contrib.   =     -85.50552601 Ry

     convergence has been achieved in  10 iterations

     Forces acting on atoms (cartesian axes, Ry/au):

     atom    1 type  1   force =     0.00004564   -0.00002736   -0.00734270
     atom    2 type  1   force =    -0.00004652    0.00002584   -0.00734270
     atom    3 type  2   force =    -0.00013305    0.00000009    0.00093666
     atom    4 type  2   force =     0.00006661   -0.00011518    0.00093666
     atom    5 type  2   force =     0.00006667    0.00011547    0.00093356
     atom    6 type  3   force =     0.00000571   -0.00000323    0.00449774
     atom    7 type  3   force =    -0.00000566    0.00000333    0.00449774
     atom    8 type  3   force =     0.00028197   -0.00000164   -0.00266479
     atom    9 type  3   force =    -0.00014240    0.00024337   -0.00266479
     atom   10 type  3   force =    -0.00013919   -0.00024109   -0.00263385
     atom   11 type  3   force =    -0.00101148   -0.00000028    0.02073619
     atom   12 type  3   force =     0.00050550   -0.00087611    0.02073619
     atom   13 type  3   force =     0.00050585    0.00087616    0.02073010
     atom   14 type  3   force =    -0.00000012   -0.00000021   -0.01889285
     atom   15 type  4   force =     0.00270194   -0.00000079   -0.01594816
     atom   16 type  4   force =    -0.00135165    0.00233955   -0.01594816
     atom   17 type  4   force =    -0.00134994   -0.00233817   -0.01594453
     atom   18 type  4   force =     0.00000014    0.00000024    0.01537768

     Total force =     0.053323     Total SCF correction =     0.001613

     BFGS Geometry Optimization
     Energy error            =      0.0E+00 Ry
     Gradient error          =      2.1E-02 Ry/Bohr

     number of scf cycles    =   1
     number of bfgs steps    =   0

     energy             new  =    -780.2663412035 Ry

     new trust radius        =       0.0207608455 bohr
     new conv_thr            =       0.0000010000 Ry


ATOMIC_POSITIONS (angstrom)
Si           -0.0000022286        3.0461065446        0.5129603905
Si            2.6380067646        1.5230513421        0.5129603905
Mg            1.7447588581        0.0000000495        3.2889655736
Mg           -0.8723793862        1.5110055194        3.2889655736
Mg            1.7656256441        3.0581533226        3.2889639369
O            -0.0000233559        3.0461193129        2.1120397782
O             2.6380283860        1.5230394296        2.1120397782
O             2.7558619948       -0.0000008669        7.0051196560
O            -1.3779317481        2.3866460634        7.0051196560
O             1.2600749517        2.1825138376        7.0051360272
O             3.5091721179       -0.0000001490        4.2607537852
O            -1.7545861880        3.0390321259        4.2607537852
O             0.8834189985        1.5301265898        4.2607505622
O            -0.0000000645       -0.0000001118        2.1334683784
H             3.4159051947       -0.0000004161        5.2152493297
H            -1.7079529576        2.9582604674        5.2152493297
H             0.9300529452        1.6108989547        5.2152512524
H             0.0000000738        0.0000001279        1.1786207191



     Writing config-only to output data dir ./lisa.save/
     NEW-OLD atomic charge density approx. for the potential

     Check: negative core charge=   -0.000014

     total cpu time spent up to now is       99.6 secs

     Self-consistent Calculation

     iteration #  1     ecut=    60.00 Ry     beta= 0.70
     Davidson diagonalization with overlap
     ethr =  1.00E-06,  avg # of iterations =  4.2

     total cpu time spent up to now is      112.9 secs

     total energy              =    -780.26609547 Ry
     estimated scf accuracy    <       0.00104281 Ry

     iteration #  2     ecut=    60.00 Ry     beta= 0.70
     Davidson diagonalization with overlap
     ethr =  1.09E-06,  avg # of iterations =  3.0

     total cpu time spent up to now is      121.7 secs

     total energy              =    -780.26631976 Ry
     estimated scf accuracy    <       0.00033950 Ry

     iteration #  3     ecut=    60.00 Ry     beta= 0.70
     Davidson diagonalization with overlap
     ethr =  3.54E-07,  avg # of iterations =  3.0

     total cpu time spent up to now is      130.2 secs

     total energy              =    -780.26640661 Ry
     estimated scf accuracy    <       0.00002353 Ry

     iteration #  4     ecut=    60.00 Ry     beta= 0.70
     Davidson diagonalization with overlap
     ethr =  2.45E-08,  avg # of iterations =  3.0

     total cpu time spent up to now is      138.6 secs

     total energy              =    -780.26641104 Ry
     estimated scf accuracy    <       0.00000221 Ry

     iteration #  5     ecut=    60.00 Ry     beta= 0.70
     Davidson diagonalization with overlap
     ethr =  2.30E-09,  avg # of iterations =  3.0

     total cpu time spent up to now is      147.2 secs

     End of self-consistent calculation

          k = 0.0000 0.0000 0.0000 (  9177 PWs)   bands (ev):

   -67.5495 -67.5445 -67.5445 -34.3526 -34.3526 -34.3516 -34.3480 -34.3329
   -34.3250 -34.3250 -34.3094 -34.3094 -16.1621 -14.4701 -14.4701 -13.7946
   -13.2601 -13.2571 -13.1892 -12.8577 -12.8577  -5.7450  -2.1229  -2.1012
    -2.1012  -1.5524  -1.1031  -1.1031  -0.7577  -0.1257   0.5115   0.5115
     0.9714   0.9714   1.6959   1.6959   1.7820   2.1039   2.1040   2.5416
     2.5708   2.7316   2.7316   2.8530   3.3894   3.3895   4.1505   4.1505

          k = 0.0000 0.0000 0.1236 (  9123 PWs)   bands (ev):

   -67.5495 -67.5445 -67.5445 -34.3526 -34.3526 -34.3516 -34.3480 -34.3329
   -34.3250 -34.3250 -34.3094 -34.3094 -16.1596 -14.4699 -14.4699 -13.8246
   -13.2584 -13.2570 -13.1598 -12.8580 -12.8580  -5.7462  -2.3572  -2.1053
    -2.1053  -1.3151  -1.0514  -1.0514  -0.6477  -0.1117   0.3949   0.3949
     0.9857   0.9857   1.6214   1.6875   1.6875   2.1688   2.1688   2.5492
     2.5585   2.7387   2.7387   2.8482   3.3875   3.3876   4.1512   4.1512

          k = 0.0000 0.0000 0.2471 (  9111 PWs)   bands (ev):

   -67.5495 -67.5445 -67.5445 -34.3526 -34.3526 -34.3516 -34.3480 -34.3329
   -34.3250 -34.3250 -34.3094 -34.3094 -16.1545 -14.4696 -14.4695 -13.8777
   -13.2571 -13.2569 -13.1061 -12.8587 -12.8587  -5.7486  -2.6231  -2.1130
    -2.1129  -1.1343  -0.9296  -0.9296  -0.2508  -0.0831   0.1669   0.1670
     1.0233   1.0233   1.2197   1.6144   1.6145   2.3585   2.3586   2.5054
     2.5926   2.7151   2.7151   2.8349   3.3837   3.3838   4.1524   4.1524

          k = 0.0000 0.0000-0.3707 (  9082 PWs)   bands (ev):

   -67.5495 -67.5445 -67.5445 -34.3526 -34.3526 -34.3516 -34.3480 -34.3329
   -34.3250 -34.3250 -34.3094 -34.3094 -16.1520 -14.4694 -14.4694 -13.9016
   -13.2569 -13.2567 -13.0815 -12.8590 -12.8590  -5.7498  -2.7214  -2.1165
    -2.1164  -1.0991  -0.8530  -0.8530  -0.0686   0.0454   0.0454   0.0919
     0.8978   1.0474   1.0474   1.5650   1.5650   2.4832   2.5065   2.5065
     2.6107   2.6494   2.6494   2.8262   3.3820   3.3820   4.1532   4.1532

          k = 0.0000 0.1925 0.0000 (  9115 PWs)   bands (ev):

   -67.5491 -67.5447 -67.5446 -34.3601 -34.3575 -34.3432 -34.3395 -34.3312
   -34.3260 -34.3254 -34.3135 -34.3104 -16.0855 -14.6163 -14.4734 -13.7482
   -13.2461 -13.2404 -13.2022 -12.8820 -12.8727  -5.5213  -2.2807  -2.0690
    -1.9972  -1.5017  -1.1738  -1.1499  -0.7358  -0.2880   0.4733   0.5297
     0.8735   1.0257   1.6579   1.7607   1.7961   2.1298   2.1845   2.3996
     2.5137   2.6615   2.9883   3.0078   3.2281   3.3601   3.8741   4.1075

          k = 0.0000 0.1925 0.1236 (  9094 PWs)   bands (ev):

   -67.5491 -67.5447 -67.5446 -34.3601 -34.3575 -34.3432 -34.3395 -34.3312
   -34.3260 -34.3254 -34.3135 -34.3104 -16.0831 -14.6158 -14.4731 -13.7764
   -13.2604 -13.2448 -13.1579 -12.8795 -12.8725  -5.5225  -2.3480  -2.2070
    -2.0016  -1.3728  -1.1133  -1.0316  -0.6435  -0.2685   0.2791   0.5349
     0.8479   1.0279   1.5815   1.7125   1.8086   2.1186   2.2483   2.4033
     2.5461   2.6650   2.9850   3.0078   3.2295   3.3581   3.8841   4.1080

          k = 0.0000 0.1925 0.2471 (  9081 PWs)   bands (ev):

   -67.5491 -67.5447 -67.5446 -34.3601 -34.3575 -34.3432 -34.3395 -34.3312
   -34.3260 -34.3254 -34.3135 -34.3104 -16.0783 -14.6147 -14.4727 -13.8268
   -13.2704 -13.2504 -13.0975 -12.8751 -12.8716  -5.5250  -2.5608  -2.2422
    -2.0092  -1.2834  -1.0241  -0.8353  -0.2814  -0.2172   0.0556   0.3099
     0.8593   1.0512   1.2296   1.6872   1.7676   2.2144   2.3355   2.4556
     2.5659   2.6871   2.9681   2.9995   3.2313   3.3530   3.9024   4.1089

          k = 0.0000 0.1925-0.3707 (  9080 PWs)   bands (ev):

   -67.5491 -67.5447 -67.5446 -34.3601 -34.3575 -34.3432 -34.3395 -34.3312
   -34.3260 -34.3254 -34.3135 -34.3104 -16.0758 -14.6141 -14.4725 -13.8496
   -13.2732 -13.2530 -13.0722 -12.8737 -12.8703  -5.5263  -2.6503  -2.2461
    -2.0128  -1.2549  -0.9717  -0.7653  -0.1933  -0.0416   0.0623   0.1441
     0.8051   1.0072   1.0683   1.6853   1.7120   2.2926   2.3589   2.4944
     2.5659   2.7111   2.9509   2.9892   3.2323   3.3497   3.9109   4.1093

          k = 0.0000 0.3849 0.0000 (  9067 PWs)   bands (ev):

   -67.5481 -67.5455 -67.5449 -34.3661 -34.3555 -34.3366 -34.3328 -34.3309
   -34.3268 -34.3253 -34.3195 -34.3133 -15.8786 -14.9464 -14.4799 -13.6275
   -13.3015 -13.2281 -13.1475 -12.9520 -12.8998  -4.9595  -2.7428  -1.9673
    -1.7578  -1.3734  -1.2732  -1.2441  -0.7760  -0.5618   0.3510   0.3880
     0.9393   1.1107   1.5843   1.7567   1.9614   2.1386   2.2192   2.3500
     2.3689   2.6308   2.8760   3.1183   3.3233   3.4613   3.5118   3.9674

          k = 0.0000 0.3849 0.1236 (  9090 PWs)   bands (ev):

   -67.5481 -67.5455 -67.5449 -34.3661 -34.3555 -34.3366 -34.3328 -34.3309
   -34.3268 -34.3253 -34.3195 -34.3133 -15.8765 -14.9452 -14.4796 -13.6496
   -13.3206 -13.2388 -13.1093 -12.9403 -12.8986  -4.9609  -2.7505  -2.0712
    -1.7654  -1.5040  -1.2472  -0.9652  -0.6855  -0.5211   0.1555   0.4753
     0.8694   1.0670   1.4783   1.7602   1.9929   2.1163   2.2846   2.3413
     2.3930   2.6553   2.8814   3.1296   3.3304   3.4604   3.5143   3.9672

          k = 0.0000 0.3849 0.2471 (  9072 PWs)   bands (ev):

   -67.5481 -67.5455 -67.5449 -34.3661 -34.3555 -34.3366 -34.3328 -34.3309
   -34.3268 -34.3253 -34.3195 -34.3133 -15.8723 -14.9428 -14.4790 -13.6906
   -13.3456 -13.2544 -13.0540 -12.9197 -12.8949  -4.9636  -2.7705  -2.2315
    -1.7743  -1.5273  -1.2158  -0.7826  -0.4316  -0.3232  -0.0515   0.4470
     0.7038   1.0578   1.1349   1.8176   2.0312   2.1453   2.2948   2.3646
     2.4501   2.6979   2.8903   3.1533   3.3394   3.4635   3.5178   3.9665

          k = 0.0000 0.3849-0.3707 (  9074 PWs)   bands (ev):

   -67.5481 -67.5455 -67.5449 -34.3661 -34.3555 -34.3366 -34.3328 -34.3309
   -34.3268 -34.3253 -34.3195 -34.3133 -15.8702 -14.9416 -14.4787 -13.7098
   -13.3554 -13.2607 -13.0318 -12.9109 -12.8917  -4.9649  -2.7833  -2.2929
    -1.7782  -1.5270  -1.1844  -0.7437  -0.4072  -0.1112  -0.0232   0.3309
     0.6808   0.8823   1.0625   1.8226   2.0370   2.2189   2.2723   2.3599
     2.4821   2.7172   2.8959   3.1657   3.3402   3.4676   3.5190   3.9659

          k = 0.0000-0.5774 0.0000 (  9058 PWs)   bands (ev):

   -67.5469 -67.5466 -67.5450 -34.3683 -34.3464 -34.3443 -34.3335 -34.3299
   -34.3257 -34.3240 -34.3181 -34.3166 -15.6997 -15.1809 -14.4831 -13.5212
   -13.3819 -13.2295 -13.0599 -13.0389 -12.9124  -4.5377  -3.1227  -1.9100
    -1.6154  -1.3341  -1.3075  -1.1904  -0.9488  -0.6375   0.2545   0.3239
     1.0317   1.1832   1.5397   1.7087   2.0498   2.1243   2.1460   2.2024
     2.5263   2.5980   2.8165   2.9220   3.2573   3.6801   3.7224   3.7450

          k = 0.0000-0.5774 0.1236 (  9094 PWs)   bands (ev):

   -67.5469 -67.5466 -67.5450 -34.3683 -34.3464 -34.3443 -34.3335 -34.3299
   -34.3257 -34.3240 -34.3181 -34.3166 -15.6980 -15.1792 -14.4828 -13.5297
   -13.4139 -13.2421 -13.0278 -13.0210 -12.9108  -4.5393  -3.1253  -1.9105
    -1.6811  -1.5576  -1.3366  -0.8606  -0.8137  -0.6061   0.0818   0.4071
     0.9987   1.0988   1.3564   1.7628   2.0781   2.0986   2.1736   2.3210
     2.5025   2.6022   2.8597   2.9189   3.2604   3.6811   3.7247   3.7393

          k = 0.0000-0.5774 0.2471 (  9098 PWs)   bands (ev):

   -67.5469 -67.5466 -67.5450 -34.3683 -34.3464 -34.3443 -34.3335 -34.3299
   -34.3257 -34.3240 -34.3181 -34.3166 -15.6945 -15.1759 -14.4821 -13.5466
   -13.4657 -13.2608 -12.9931 -12.9757 -12.9059  -4.5426  -3.1310  -1.9226
    -1.8802  -1.5845  -1.3176  -0.7871  -0.5056  -0.3548  -0.1027   0.4681
     0.7890   1.0005   1.0439   1.8324   2.0936   2.1633   2.2457   2.3869
     2.4637   2.6337   2.8986   2.9523   3.2693   3.6837   3.7268   3.7284

          k = 0.0000-0.5774-0.3707 (  9084 PWs)   bands (ev):

   -67.5469 -67.5466 -67.5450 -34.3683 -34.3464 -34.3443 -34.3335 -34.3299
   -34.3257 -34.3240 -34.3181 -34.3166 -15.6928 -15.1742 -14.4817 -13.5551
   -13.4879 -13.2681 -12.9823 -12.9534 -12.9025  -4.5442  -3.1341  -1.9563
    -1.9330  -1.5863  -1.2792  -0.7714  -0.5092  -0.0916  -0.0909   0.4785
     0.6421   0.7685   1.0420   1.8337   2.0989   2.2693   2.2771   2.3446
     2.4467   2.6593   2.8962   2.9885   3.2754   3.6851   3.7198   3.7299

          k = 0.1667 0.2887 0.0000 (  9098 PWs)   bands (ev):

   -67.5484 -67.5451 -67.5450 -34.3614 -34.3607 -34.3379 -34.3326 -34.3306
   -34.3270 -34.3258 -34.3187 -34.3121 -15.9411 -14.8527 -14.4806 -13.6645
   -13.2687 -13.2376 -13.1696 -12.9193 -12.9037  -5.1189  -2.6228  -1.9953
    -1.8064  -1.4129  -1.2602  -1.2092  -0.7370  -0.5157   0.2941   0.6183
     0.7833   1.1443   1.5814   1.7947   1.8550   2.2021   2.2088   2.3484
     2.4547   2.5193   2.9101   3.2083   3.3557   3.4071   3.4562   4.0386

          k = 0.1667 0.2887 0.1236 (  9102 PWs)   bands (ev):

   -67.5484 -67.5451 -67.5450 -34.3614 -34.3607 -34.3379 -34.3326 -34.3306
   -34.3270 -34.3258 -34.3187 -34.3121 -15.9388 -14.8515 -14.4805 -13.6886
   -13.2871 -13.2480 -13.1278 -12.9099 -12.9028  -5.1194  -2.6307  -2.1264
    -1.8031  -1.4902  -1.1787  -1.0122  -0.6809  -0.4698   0.3925   0.4152
     0.6786   1.1333   1.4676   1.7741   1.9297   2.1452   2.3246   2.3393
     2.4290   2.5806   2.9265   3.2070   3.3637   3.3883   3.4875   4.0374

          k = 0.1667 0.2887 0.2471 (  9081 PWs)   bands (ev):

   -67.5484 -67.5451 -67.5450 -34.3614 -34.3607 -34.3379 -34.3326 -34.3306
   -34.3270 -34.3258 -34.3187 -34.3121 -15.9344 -14.8496 -14.4797 -13.7331
   -13.3040 -13.2650 -13.0700 -12.8994 -12.8943  -5.1220  -2.6642  -2.2982
    -1.8108  -1.4571  -1.1628  -0.8584  -0.3450  -0.3151   0.1819   0.2441
     0.6567   1.1102   1.1493   1.8692   1.8979   2.1608   2.3259   2.3356
     2.5390   2.6195   2.9394   3.2073   3.3661   3.3742   3.5213   4.0378

          k = 0.1667 0.2887-0.3707 (  9066 PWs)   bands (ev):

   -67.5484 -67.5451 -67.5450 -34.3614 -34.3607 -34.3379 -34.3326 -34.3306
   -34.3270 -34.3258 -34.3187 -34.3121 -15.9322 -14.8489 -14.4790 -13.7537
   -13.3096 -13.2719 -13.0466 -12.8970 -12.8878  -5.1240  -2.6928  -2.3522
    -1.8216  -1.4181  -1.1771  -0.7401  -0.2877  -0.1615   0.0127   0.2745
     0.6993   0.9149   1.0982   1.8222   1.9116   2.2721   2.2798   2.3321
     2.5877   2.6031   2.9434   3.2073   3.3588   3.3841   3.5242   4.0395

          k = 0.1667 0.4811 0.0000 (  9078 PWs)   bands (ev):

   -67.5472 -67.5460 -67.5453 -34.3642 -34.3544 -34.3419 -34.3333 -34.3297
   -34.3259 -34.3238 -34.3186 -34.3150 -15.7028 -15.1731 -14.4889 -13.5400
   -13.3396 -13.2516 -13.0873 -12.9918 -12.9329  -4.5102  -3.1925  -1.9174
    -1.5705  -1.3427  -1.2874  -1.2057  -0.8675  -0.7161   0.1463   0.5977
     0.9128   1.2743   1.4731   1.7388   1.8493   2.0277   2.2623   2.2695
     2.4204   2.6170   2.8384   2.9772   3.2073   3.6519   3.6877   3.8953

          k = 0.1667 0.4811 0.1236 (  9083 PWs)   bands (ev):

   -67.5472 -67.5460 -67.5453 -34.3642 -34.3544 -34.3419 -34.3333 -34.3297
   -34.3259 -34.3238 -34.3186 -34.3150 -15.7009 -15.1714 -14.4888 -13.5527
   -13.3643 -13.2697 -13.0561 -12.9737 -12.9281  -4.5098  -3.1903  -1.9362
    -1.6230  -1.5336  -1.3346  -0.9409  -0.7644  -0.6415   0.2871   0.4145
     0.7989   1.2088   1.2661   1.7769   1.9060   2.0653   2.2692   2.3644
     2.4518   2.6224   2.8899   2.9814   3.2040   3.6482   3.6896   3.8932

          k = 0.1667 0.4811 0.2471 (  9088 PWs)   bands (ev):

   -67.5472 -67.5460 -67.5453 -34.3642 -34.3544 -34.3419 -34.3333 -34.3297
   -34.3259 -34.3238 -34.3186 -34.3150 -15.6972 -15.1686 -14.4876 -13.5809
   -13.3983 -13.2951 -13.0128 -12.9457 -12.9144  -4.5127  -3.1962  -2.0307
    -1.6996  -1.5517  -1.3820  -0.8997  -0.4285  -0.3485   0.1133   0.4071
     0.6163   0.9429   1.1689   1.8593   1.9229   2.1263   2.2664   2.3932
     2.4882   2.6572   2.9378   2.9924   3.2072   3.6462   3.6907   3.8921

          k = 0.1667 0.4811-0.3707 (  9090 PWs)   bands (ev):

   -67.5472 -67.5460 -67.5453 -34.3642 -34.3544 -34.3419 -34.3333 -34.3297
   -34.3259 -34.3238 -34.3186 -34.3150 -15.6955 -15.1674 -14.4864 -13.5956
   -13.4116 -13.3044 -12.9970 -12.9333 -12.9068  -4.5160  -3.2046  -2.0832
    -1.7138  -1.5556  -1.3888  -0.7922  -0.3858  -0.1578  -0.0612   0.4552
     0.6256   0.7707   1.1534   1.8651   1.9171   2.1156   2.3290   2.3818
     2.4695   2.6637   2.9431   2.9915   3.2135   3.6488   3.6898   3.8932

          k = 0.3333 0.5774 0.0000 (  9054 PWs)   bands (ev):

   -67.5464 -67.5461 -67.5461 -34.3553 -34.3544 -34.3544 -34.3309 -34.3308
   -34.3263 -34.3221 -34.3164 -34.3163 -15.4490 -15.4489 -14.4964 -13.4873
   -13.3158 -13.3158 -13.0189 -13.0189 -12.9805  -3.8631  -3.8630  -1.8984
    -1.4341  -1.3294  -1.3294  -1.0108  -1.0108  -0.8461   0.0859   0.8182
     1.0647   1.0647   1.5178   1.5178   1.8504   2.0322   2.0322   2.4697
     2.4697   2.5518   2.6346   3.1057   3.1057   3.7764   3.8317   3.8317

          k = 0.3333 0.5774 0.1236 (  9069 PWs)   bands (ev):

   -67.5464 -67.5461 -67.5461 -34.3553 -34.3544 -34.3544 -34.3309 -34.3308
   -34.3263 -34.3221 -34.3164 -34.3163 -15.4472 -15.4471 -14.4962 -13.4871
   -13.3450 -13.3449 -12.9903 -12.9903 -12.9811  -3.8604  -3.8604  -1.8645
    -1.5069  -1.5069  -1.4339  -0.9423  -0.7452  -0.7451   0.2432   0.7084
     0.8503   0.8503   1.4987   1.4987   1.8810   2.0912   2.0912   2.5294
     2.5858   2.5858   2.6322   3.0970   3.0970   3.7791   3.8303   3.8303

          k = 0.3333 0.5774 0.2471 (  9090 PWs)   bands (ev):

   -67.5464 -67.5461 -67.5461 -34.3553 -34.3544 -34.3544 -34.3309 -34.3308
   -34.3263 -34.3221 -34.3164 -34.3163 -15.4440 -15.4440 -14.4944 -13.4926
   -13.3881 -13.3881 -12.9778 -12.9478 -12.9478  -3.8636  -3.8635  -1.8104
    -1.6753  -1.6753  -1.4337  -0.9505  -0.3871  -0.3870   0.1967   0.5586
     0.6265   0.6265   1.4708   1.4708   2.0668   2.0668   2.0714   2.5075
     2.6270   2.6864   2.6864   3.0887   3.0888   3.7852   3.8284   3.8284

          k = 0.3333 0.5774-0.3707 (  9090 PWs)   bands (ev):

   -67.5464 -67.5461 -67.5461 -34.3553 -34.3544 -34.3544 -34.3309 -34.3308
   -34.3263 -34.3221 -34.3164 -34.3163 -15.4427 -15.4427 -14.4927 -13.4980
   -13.4047 -13.4047 -12.9741 -12.9312 -12.9312  -3.8694  -3.8693  -1.7962
    -1.7318  -1.7318  -1.4336  -0.8268  -0.2474  -0.2473  -0.0883   0.5952
     0.6101   0.6101   1.4682   1.4682   1.9945   1.9945   2.1980   2.5161
     2.6243   2.6751   2.6751   3.0927   3.0927   3.7885   3.8282   3.8282

          k =-0.1667 0.0962 0.0000 (  9115 PWs)   bands (ev):

   -67.5491 -67.5447 -67.5447 -34.3601 -34.3575 -34.3432 -34.3395 -34.3312
   -34.3259 -34.3254 -34.3135 -34.3104 -16.0855 -14.6163 -14.4733 -13.7482
   -13.2461 -13.2404 -13.2022 -12.8820 -12.8727  -5.5213  -2.2807  -2.0690
    -1.9971  -1.5017  -1.1738  -1.1499  -0.7358  -0.2880   0.4733   0.5297
     0.8735   1.0257   1.6579   1.7607   1.7960   2.1298   2.1845   2.3996
     2.5137   2.6615   2.9883   3.0078   3.2281   3.3601   3.8741   4.1075

          k = 0.0000 0.1925-0.1236 (  9094 PWs)   bands (ev):

   -67.5491 -67.5447 -67.5446 -34.3601 -34.3575 -34.3432 -34.3395 -34.3312
   -34.3260 -34.3254 -34.3135 -34.3104 -16.0831 -14.6158 -14.4731 -13.7764
   -13.2604 -13.2448 -13.1579 -12.8795 -12.8725  -5.5225  -2.3480  -2.2070
    -2.0016  -1.3728  -1.1133  -1.0316  -0.6435  -0.2685   0.2791   0.5348
     0.8479   1.0279   1.5815   1.7125   1.8086   2.1186   2.2483   2.4033
     2.5461   2.6650   2.9850   3.0077   3.2295   3.3581   3.8841   4.1080

          k =-0.1667 0.0962 0.1236 (  9094 PWs)   bands (ev):

   -67.5491 -67.5447 -67.5447 -34.3601 -34.3575 -34.3432 -34.3395 -34.3312
   -34.3259 -34.3254 -34.3135 -34.3104 -16.0831 -14.6158 -14.4731 -13.7764
   -13.2604 -13.2448 -13.1579 -12.8795 -12.8725  -5.5225  -2.3480  -2.2070
    -2.0015  -1.3728  -1.1133  -1.0316  -0.6435  -0.2685   0.2791   0.5349
     0.8479   1.0279   1.5815   1.7125   1.8086   2.1186   2.2483   2.4033
     2.5461   2.6650   2.9850   3.0078   3.2295   3.3581   3.8841   4.1080

          k = 0.0000 0.1925-0.2471 (  9081 PWs)   bands (ev):

   -67.5491 -67.5447 -67.5446 -34.3601 -34.3575 -34.3432 -34.3395 -34.3312
   -34.3260 -34.3254 -34.3135 -34.3104 -16.0783 -14.6147 -14.4727 -13.8268
   -13.2704 -13.2504 -13.0975 -12.8751 -12.8716  -5.5250  -2.5608  -2.2422
    -2.0092  -1.2834  -1.0241  -0.8353  -0.2814  -0.2172   0.0556   0.3099
     0.8593   1.0512   1.2296   1.6871   1.7676   2.2144   2.3356   2.4556
     2.5660   2.6871   2.9681   2.9995   3.2313   3.3530   3.9024   4.1089

          k =-0.1667 0.0962 0.2471 (  9081 PWs)   bands (ev):

   -67.5491 -67.5447 -67.5447 -34.3601 -34.3575 -34.3432 -34.3395 -34.3312
   -34.3259 -34.3254 -34.3135 -34.3104 -16.0783 -14.6147 -14.4727 -13.8268
   -13.2704 -13.2504 -13.0975 -12.8751 -12.8716  -5.5250  -2.5608  -2.2422
    -2.0092  -1.2834  -1.0241  -0.8353  -0.2814  -0.2172   0.0556   0.3099
     0.8593   1.0512   1.2296   1.6872   1.7676   2.2144   2.3355   2.4556
     2.5660   2.6871   2.9681   2.9995   3.2313   3.3530   3.9024   4.1089

          k =-0.1667 0.0962-0.3707 (  9080 PWs)   bands (ev):

   -67.5491 -67.5447 -67.5447 -34.3601 -34.3575 -34.3432 -34.3395 -34.3312
   -34.3259 -34.3254 -34.3135 -34.3104 -16.0758 -14.6142 -14.4725 -13.8496
   -13.2732 -13.2530 -13.0722 -12.8737 -12.8703  -5.5263  -2.6503  -2.2461
    -2.0127  -1.2549  -0.9717  -0.7653  -0.1933  -0.0416   0.0623   0.1441
     0.8051   1.0072   1.0683   1.6853   1.7120   2.2926   2.3588   2.4944
     2.5659   2.7111   2.9509   2.9892   3.2324   3.3497   3.9109   4.1093

          k =-0.3333 0.1925 0.0000 (  9067 PWs)   bands (ev):

   -67.5481 -67.5455 -67.5449 -34.3661 -34.3555 -34.3366 -34.3328 -34.3309
   -34.3269 -34.3253 -34.3195 -34.3133 -15.8785 -14.9464 -14.4798 -13.6275
   -13.3015 -13.2281 -13.1475 -12.9520 -12.8998  -4.9595  -2.7428  -1.9673
    -1.7578  -1.3734  -1.2732  -1.2441  -0.7761  -0.5617   0.3510   0.3880
     0.9393   1.1107   1.5843   1.7567   1.9614   2.1387   2.2193   2.3500
     2.3689   2.6308   2.8761   3.1183   3.3233   3.4613   3.5118   3.9674

          k = 0.0000 0.3849-0.1236 (  9090 PWs)   bands (ev):

   -67.5481 -67.5455 -67.5449 -34.3661 -34.3555 -34.3366 -34.3328 -34.3309
   -34.3268 -34.3253 -34.3195 -34.3133 -15.8765 -14.9452 -14.4796 -13.6496
   -13.3206 -13.2388 -13.1093 -12.9403 -12.8986  -4.9609  -2.7505  -2.0712
    -1.7654  -1.5040  -1.2472  -0.9652  -0.6855  -0.5211   0.1555   0.4753
     0.8694   1.0670   1.4783   1.7602   1.9929   2.1163   2.2846   2.3413
     2.3931   2.6553   2.8814   3.1296   3.3304   3.4604   3.5143   3.9672

          k =-0.3333 0.1925 0.1236 (  9090 PWs)   bands (ev):

   -67.5481 -67.5455 -67.5449 -34.3661 -34.3555 -34.3366 -34.3328 -34.3309
   -34.3269 -34.3253 -34.3195 -34.3133 -15.8765 -14.9452 -14.4795 -13.6496
   -13.3206 -13.2388 -13.1093 -12.9403 -12.8986  -4.9609  -2.7506  -2.0712
    -1.7654  -1.5040  -1.2472  -0.9652  -0.6855  -0.5211   0.1555   0.4753
     0.8694   1.0670   1.4783   1.7602   1.9929   2.1163   2.2846   2.3413
     2.3930   2.6553   2.8814   3.1296   3.3304   3.4604   3.5143   3.9672

          k = 0.0000 0.3849-0.2471 (  9072 PWs)   bands (ev):

   -67.5481 -67.5455 -67.5449 -34.3661 -34.3555 -34.3366 -34.3328 -34.3309
   -34.3268 -34.3253 -34.3195 -34.3133 -15.8723 -14.9428 -14.4790 -13.6906
   -13.3456 -13.2544 -13.0540 -12.9197 -12.8949  -4.9636  -2.7705  -2.2315
    -1.7743  -1.5273  -1.2158  -0.7826  -0.4316  -0.3232  -0.0515   0.4470
     0.7038   1.0578   1.1349   1.8176   2.0312   2.1453   2.2948   2.3646
     2.4501   2.6979   2.8903   3.1533   3.3394   3.4635   3.5178   3.9665

          k =-0.3333 0.1925 0.2471 (  9072 PWs)   bands (ev):

   -67.5481 -67.5455 -67.5449 -34.3661 -34.3555 -34.3366 -34.3328 -34.3309
   -34.3269 -34.3253 -34.3195 -34.3133 -15.8723 -14.9428 -14.4789 -13.6906
   -13.3456 -13.2544 -13.0540 -12.9197 -12.8949  -4.9636  -2.7706  -2.2315
    -1.7743  -1.5273  -1.2158  -0.7826  -0.4316  -0.3232  -0.0515   0.4470
     0.7038   1.0578   1.1349   1.8176   2.0312   2.1453   2.2948   2.3645
     2.4501   2.6979   2.8904   3.1533   3.3394   3.4635   3.5178   3.9665

          k =-0.3333 0.1925-0.3707 (  9074 PWs)   bands (ev):

   -67.5481 -67.5455 -67.5449 -34.3661 -34.3555 -34.3366 -34.3328 -34.3309
   -34.3269 -34.3253 -34.3195 -34.3133 -15.8701 -14.9416 -14.4786 -13.7098
   -13.3554 -13.2607 -13.0318 -12.9109 -12.8917  -4.9649  -2.7834  -2.2929
    -1.7781  -1.5270  -1.1844  -0.7437  -0.4072  -0.1112  -0.0232   0.3309
     0.6809   0.8823   1.0625   1.8226   2.0370   2.2188   2.2724   2.3598
     2.4821   2.7172   2.8959   3.1656   3.3402   3.4676   3.5190   3.9659

          k = 0.5000-0.2887 0.0000 (  9058 PWs)   bands (ev):

   -67.5469 -67.5466 -67.5451 -34.3683 -34.3464 -34.3444 -34.3335 -34.3299
   -34.3257 -34.3240 -34.3180 -34.3167 -15.6997 -15.1809 -14.4831 -13.5212
   -13.3819 -13.2295 -13.0599 -13.0389 -12.9124  -4.5376  -3.1228  -1.9100
    -1.6153  -1.3341  -1.3076  -1.1904  -0.9488  -0.6375   0.2545   0.3239
     1.0317   1.1831   1.5397   1.7087   2.0499   2.1243   2.1460   2.2024
     2.5264   2.5980   2.8165   2.9220   3.2573   3.6801   3.7224   3.7450

[...]
   -34.3210 -34.3207 -34.3136 -34.3122 -15.6970 -15.1784 -14.4846 -13.4520
   -13.3840 -13.2064 -12.9713 -12.9561 -12.8427  -4.5333  -3.1167  -1.8655
    -1.6763  -1.5456  -1.3253  -0.8423  -0.7939  -0.5786   0.0934   0.4226
     1.0217   1.1084   1.3745   1.7681   2.0791   2.1017   2.1976   2.3340
     2.5206   2.6138   2.8687   2.9535   3.2881   3.6860   3.7339   3.7606

          k = 0.5000-0.2887 0.2471 (  9098 PWs)   bands (ev):

   -67.5428 -67.5426 -67.5410 -34.3643 -34.3422 -34.3407 -34.3289 -34.3253
   -34.3210 -34.3207 -34.3136 -34.3122 -15.6936 -15.1752 -14.4840 -13.4727
   -13.4333 -13.2172 -12.9311 -12.9215 -12.8389  -4.5367  -3.1228  -1.8812
    -1.8756  -1.5734  -1.3000  -0.7665  -0.4781  -0.3251  -0.0922   0.4798
     0.8108   1.0065   1.0462   1.8401   2.0941   2.1708   2.2710   2.4045
     2.4825   2.6450   2.9286   2.9673   3.2959   3.6887   3.7379   3.7466

          k = 0.5000-0.2887-0.3707 (  9084 PWs)   bands (ev):

   -67.5428 -67.5426 -67.5410 -34.3643 -34.3422 -34.3407 -34.3289 -34.3253
   -34.3210 -34.3207 -34.3136 -34.3122 -15.6919 -15.1736 -14.4836 -13.4828
   -13.4547 -13.2214 -12.9208 -12.8999 -12.8362  -4.5384  -3.1261  -1.9519
    -1.8940  -1.5754  -1.2540  -0.7597  -0.4802  -0.0734  -0.0481   0.4815
     0.6638   0.7608   1.0447   1.8402   2.0997   2.2910   2.2936   2.3601
     2.4664   2.6720   2.9303   3.0002   3.3013   3.6902   3.7389   3.7394

          k =-0.1667 0.2887 0.0000 (  9098 PWs)   bands (ev):

   -67.5444 -67.5411 -67.5410 -34.3572 -34.3571 -34.3334 -34.3289 -34.3262
   -34.3226 -34.3215 -34.3141 -34.3079 -15.9396 -14.8528 -14.4823 -13.6060
   -13.2181 -13.2053 -13.1144 -12.8512 -12.8353  -5.1134  -2.6144  -1.9480
    -1.7997  -1.4285  -1.2323  -1.1915  -0.7019  -0.4986   0.3115   0.6387
     0.8053   1.1557   1.5967   1.8070   1.8637   2.2078   2.2205   2.3532
     2.4769   2.5274   2.9370   3.2321   3.3605   3.4284   3.4715   4.0505

          k =-0.1667 0.2887-0.1236 (  9102 PWs)   bands (ev):

   -67.5444 -67.5411 -67.5410 -34.3572 -34.3571 -34.3334 -34.3289 -34.3262
   -34.3226 -34.3215 -34.3141 -34.3079 -15.9374 -14.8517 -14.4822 -13.6325
   -13.2272 -13.2172 -13.0764 -12.8430 -12.8346  -5.1140  -2.6222  -2.0972
    -1.7963  -1.4692  -1.1614  -0.9966  -0.6517  -0.4494   0.4136   0.4306
     0.6966   1.1406   1.4882   1.7809   1.9414   2.1532   2.3366   2.3429
     2.4494   2.5930   2.9519   3.2310   3.3692   3.4089   3.5036   4.0488

          k = 0.1667-0.2887-0.1236 (  9102 PWs)   bands (ev):

   -67.5444 -67.5411 -67.5410 -34.3572 -34.3571 -34.3334 -34.3289 -34.3262
   -34.3226 -34.3215 -34.3141 -34.3079 -15.9375 -14.8521 -14.4817 -13.6326
   -13.2250 -13.2175 -13.0772 -12.8447 -12.8339  -5.1154  -2.6294  -2.0989
    -1.8111  -1.4208  -1.2069  -0.9667  -0.6063  -0.4488   0.0796   0.7306
     0.7729   1.0871   1.5653   1.7992   1.8370   2.1537   2.2440   2.4106
     2.5071   2.5265   2.9399   3.2325   3.3572   3.4372   3.4740   4.0524

          k = 0.1667 0.2887-0.1236 (  9102 PWs)   bands (ev):

   -67.5444 -67.5410 -67.5410 -34.3572 -34.3571 -34.3334 -34.3289 -34.3262
   -34.3226 -34.3215 -34.3141 -34.3079 -15.9375 -14.8521 -14.4817 -13.6326
   -13.2250 -13.2175 -13.0772 -12.8447 -12.8339  -5.1154  -2.6294  -2.0989
    -1.8111  -1.4208  -1.2069  -0.9667  -0.6063  -0.4488   0.0796   0.7306
     0.7729   1.0871   1.5653   1.7992   1.8370   2.1537   2.2440   2.4106
     2.5071   2.5265   2.9399   3.2325   3.3572   3.4372   3.4740   4.0524

          k =-0.1667 0.2887-0.2471 (  9081 PWs)   bands (ev):

   -67.5444 -67.5411 -67.5410 -34.3572 -34.3571 -34.3334 -34.3289 -34.3262
   -34.3226 -34.3215 -34.3141 -34.3079 -15.9331 -14.8499 -14.4815 -13.6798
   -13.2423 -13.2281 -13.0209 -12.8317 -12.8292  -5.1166  -2.6557  -2.2812
    -1.8040  -1.4195  -1.1470  -0.8361  -0.3155  -0.2891   0.2029   0.2513
     0.6686   1.1159   1.1591   1.8849   1.9103   2.1660   2.3407   2.3412
     2.5589   2.6326   2.9643   3.2309   3.3724   3.3944   3.5376   4.0488

          k = 0.1667-0.2887-0.2471 (  9081 PWs)   bands (ev):

   -67.5444 -67.5411 -67.5410 -34.3572 -34.3571 -34.3334 -34.3289 -34.3262
   -34.3226 -34.3215 -34.3141 -34.3079 -15.9332 -14.8503 -14.4809 -13.6799
   -13.2402 -13.2290 -13.0210 -12.8312 -12.8307  -5.1180  -2.6645  -2.2771
    -1.8186  -1.3854  -1.1919  -0.6911  -0.3441  -0.3352  -0.1101   0.5385
     0.7409   1.0802   1.1926   1.7951   1.9301   2.2127   2.2597   2.4195
     2.5510   2.5739   2.9597   3.2310   3.3586   3.4279   3.5081   4.0527

          k = 0.1667 0.2887-0.2471 (  9081 PWs)   bands (ev):

   -67.5444 -67.5410 -67.5410 -34.3572 -34.3571 -34.3334 -34.3289 -34.3262
   -34.3226 -34.3215 -34.3141 -34.3079 -15.9332 -14.8503 -14.4809 -13.6799
   -13.2402 -13.2290 -13.0210 -12.8312 -12.8307  -5.1180  -2.6645  -2.2771
    -1.8186  -1.3854  -1.1919  -0.6911  -0.3441  -0.3352  -0.1101   0.5385
     0.7409   1.0802   1.1926   1.7951   1.9301   2.2127   2.2597   2.4195
     2.5510   2.5739   2.9597   3.2310   3.3586   3.4279   3.5081   4.0527

          k =-0.1667 0.2887 0.3707 (  9066 PWs)   bands (ev):

   -67.5444 -67.5411 -67.5410 -34.3572 -34.3571 -34.3334 -34.3288 -34.3262
   -34.3226 -34.3215 -34.3141 -34.3079 -15.9310 -14.8492 -14.4808 -13.7014
   -13.2485 -13.2319 -12.9978 -12.8296 -12.8234  -5.1186  -2.6847  -2.3377
    -1.8149  -1.3750  -1.1620  -0.7171  -0.2552  -0.1384   0.0411   0.2807
     0.7125   0.9101   1.1043   1.8344   1.9284   2.2736   2.2914   2.3475
     2.6096   2.6135   2.9694   3.2301   3.3653   3.4047   3.5394   4.0507

          k =-0.1667 0.4811 0.0000 (  9078 PWs)   bands (ev):

   -67.5432 -67.5419 -67.5413 -34.3602 -34.3505 -34.3380 -34.3287 -34.3252
   -34.3212 -34.3203 -34.3141 -34.3107 -15.7016 -15.1725 -14.4904 -13.4697
   -13.2993 -13.2240 -13.0271 -12.9258 -12.8649  -4.5040  -3.1841  -1.8719
    -1.5620  -1.3414  -1.2740  -1.1858  -0.8504  -0.6882   0.1585   0.6176
     0.9360   1.2882   1.4956   1.7432   1.8571   2.0354   2.2681   2.2762
     2.4311   2.6406   2.8457   3.0094   3.2388   3.6613   3.7008   3.9091

          k =-0.3333 0.3849 0.0000 (  9078 PWs)   bands (ev):

   -67.5432 -67.5419 -67.5413 -34.3602 -34.3505 -34.3380 -34.3287 -34.3252
   -34.3212 -34.3203 -34.3141 -34.3107 -15.7016 -15.1725 -14.4904 -13.4697
   -13.2993 -13.2240 -13.0271 -12.9258 -12.8649  -4.5040  -3.1841  -1.8719
    -1.5620  -1.3414  -1.2740  -1.1858  -0.8504  -0.6882   0.1585   0.6176
     0.9360   1.2882   1.4956   1.7432   1.8571   2.0353   2.2681   2.2762
     2.4311   2.6406   2.8457   3.0094   3.2388   3.6613   3.7008   3.9091

          k =-0.1667 0.4811-0.1236 (  9083 PWs)   bands (ev):

   -67.5432 -67.5419 -67.5413 -34.3602 -34.3505 -34.3380 -34.3287 -34.3252
   -34.3212 -34.3203 -34.3141 -34.3107 -15.6998 -15.1709 -14.4903 -13.4867
   -13.3191 -13.2371 -12.9982 -12.9099 -12.8610  -4.5036  -3.1821  -1.8961
    -1.6126  -1.5216  -1.3229  -0.9253  -0.7424  -0.6166   0.3018   0.4287
     0.8233   1.2169   1.2838   1.7817   1.9136   2.0740   2.2789   2.3772
     2.4652   2.6436   2.8977   3.0131   3.2349   3.6575   3.7027   3.9062

          k = 0.1667-0.4811-0.1236 (  9083 PWs)   bands (ev):

   -67.5432 -67.5419 -67.5413 -34.3602 -34.3505 -34.3380 -34.3287 -34.3252
   -34.3212 -34.3203 -34.3141 -34.3107 -15.7000 -15.1713 -14.4894 -13.4876
   -13.3177 -13.2344 -12.9997 -12.9114 -12.8612  -4.5074  -3.1921  -1.9078
    -1.5854  -1.5225  -1.3338  -0.8718  -0.7082  -0.6038  -0.0671   0.6590
     0.9363   1.2221   1.4304   1.7907   1.8483   2.0418   2.2385   2.3048
     2.4456   2.6490   2.8497   3.0055   3.2430   3.6641   3.7003   3.9102

          k =-0.3333 0.3849 0.1236 (  9083 PWs)   bands (ev):

   -67.5432 -67.5419 -67.5413 -34.3602 -34.3505 -34.3380 -34.3287 -34.3252
   -34.3212 -34.3203 -34.3141 -34.3107 -15.7000 -15.1713 -14.4894 -13.4876
   -13.3177 -13.2344 -12.9997 -12.9114 -12.8612  -4.5074  -3.1921  -1.9078
    -1.5854  -1.5225  -1.3338  -0.8718  -0.7082  -0.6038  -0.0671   0.6590
     0.9363   1.2221   1.4304   1.7907   1.8483   2.0418   2.2385   2.3048
     2.4456   2.6490   2.8497   3.0055   3.2430   3.6641   3.7003   3.9102

          k = 0.3333-0.3849 0.1236 (  9083 PWs)   bands (ev):

   -67.5432 -67.5419 -67.5413 -34.3602 -34.3505 -34.3380 -34.3287 -34.3252
   -34.3212 -34.3203 -34.3141 -34.3107 -15.6997 -15.1709 -14.4903 -13.4867
   -13.3191 -13.2371 -12.9982 -12.9099 -12.8610  -4.5036  -3.1821  -1.8961
    -1.6126  -1.5216  -1.3229  -0.9253  -0.7424  -0.6166   0.3018   0.4287
     0.8233   1.2169   1.2838   1.7817   1.9136   2.0740   2.2789   2.3772
     2.4652   2.6436   2.8977   3.0131   3.2349   3.6575   3.7027   3.9062

          k = 0.3333 0.3849-0.1236 (  9083 PWs)   bands (ev):

   -67.5432 -67.5419 -67.5413 -34.3602 -34.3505 -34.3380 -34.3287 -34.3252
   -34.3212 -34.3203 -34.3141 -34.3107 -15.7000 -15.1713 -14.4894 -13.4876
   -13.3177 -13.2344 -12.9997 -12.9114 -12.8612  -4.5074  -3.1921  -1.9078
    -1.5854  -1.5225  -1.3338  -0.8718  -0.7082  -0.6038  -0.0671   0.6590
     0.9363   1.2221   1.4304   1.7907   1.8483   2.0418   2.2385   2.3048
     2.4456   2.6490   2.8497   3.0055   3.2430   3.6641   3.7003   3.9102

          k =-0.1667 0.4811-0.2471 (  9088 PWs)   bands (ev):

   -67.5432 -67.5419 -67.5413 -34.3602 -34.3505 -34.3380 -34.3287 -34.3252
   -34.3212 -34.3203 -34.3141 -34.3107 -15.6962 -15.1682 -14.4892 -13.5212
   -13.3483 -13.2550 -12.9555 -12.8842 -12.8501  -4.5066  -3.1884  -2.0077
    -1.6743  -1.5376  -1.3674  -0.8865  -0.3958  -0.3182   0.1277   0.4143
     0.6342   0.9512   1.1729   1.8659   1.9319   2.1404   2.2750   2.4085
     2.5065   2.6749   2.9524   3.0190   3.2371   3.6554   3.7037   3.9042

          k = 0.1667-0.4811-0.2471 (  9088 PWs)   bands (ev):

   -67.5432 -67.5419 -67.5413 -34.3602 -34.3505 -34.3380 -34.3287 -34.3252
   -34.3212 -34.3203 -34.3141 -34.3107 -15.6964 -15.1686 -14.4883 -13.5216
   -13.3476 -13.2534 -12.9556 -12.8849 -12.8514  -4.5104  -3.1988  -2.0082
    -1.6680  -1.5462  -1.3735  -0.6538  -0.4818  -0.3752  -0.2082   0.6156
     0.7727   1.0670   1.1521   1.8407   1.9238   2.0718   2.2720   2.4041
     2.4647   2.6601   2.9111   3.0052   3.2451   3.6630   3.7012   3.9084

          k =-0.3333 0.3849 0.2471 (  9088 PWs)   bands (ev):

   -67.5432 -67.5419 -67.5413 -34.3602 -34.3505 -34.3380 -34.3287 -34.3252
   -34.3212 -34.3203 -34.3141 -34.3107 -15.6964 -15.1686 -14.4883 -13.5216
   -13.3476 -13.2534 -12.9556 -12.8849 -12.8514  -4.5104  -3.1988  -2.0082
    -1.6680  -1.5462  -1.3735  -0.6538  -0.4818  -0.3752  -0.2082   0.6156
     0.7727   1.0670   1.1521   1.8407   1.9238   2.0718   2.2720   2.4041
     2.4647   2.6601   2.9111   3.0052   3.2451   3.6630   3.7012   3.9084

          k = 0.3333-0.3849 0.2471 (  9088 PWs)   bands (ev):

   -67.5432 -67.5419 -67.5413 -34.3602 -34.3505 -34.3380 -34.3287 -34.3252
   -34.3212 -34.3203 -34.3141 -34.3107 -15.6962 -15.1682 -14.4892 -13.5212
   -13.3483 -13.2550 -12.9555 -12.8842 -12.8501  -4.5066  -3.1884  -2.0077
    -1.6743  -1.5376  -1.3674  -0.8865  -0.3958  -0.3183   0.1277   0.4143
     0.6342   0.9512   1.1729   1.8659   1.9319   2.1404   2.2750   2.4085
     2.5065   2.6749   2.9524   3.0190   3.2371   3.6554   3.7037   3.9042

          k = 0.3333 0.3849-0.2471 (  9088 PWs)   bands (ev):

   -67.5432 -67.5419 -67.5413 -34.3602 -34.3505 -34.3380 -34.3287 -34.3252
   -34.3212 -34.3203 -34.3141 -34.3107 -15.6964 -15.1686 -14.4883 -13.5216
   -13.3476 -13.2534 -12.9556 -12.8849 -12.8514  -4.5104  -3.1988  -2.0082
    -1.6680  -1.5462  -1.3735  -0.6538  -0.4818  -0.3752  -0.2082   0.6156
     0.7727   1.0670   1.1521   1.8407   1.9238   2.0718   2.2720   2.4041
     2.4647   2.6601   2.9111   3.0052   3.2451   3.6630   3.7012   3.9084

          k =-0.1667 0.4811 0.3707 (  9090 PWs)   bands (ev):

   -67.5432 -67.5419 -67.5413 -34.3602 -34.3505 -34.3380 -34.3287 -34.3252
   -34.3212 -34.3203 -34.3141 -34.3107 -15.6945 -15.1670 -14.4882 -13.5379
   -13.3604 -13.2617 -12.9388 -12.8728 -12.8439  -4.5100  -3.1971  -2.0646
    -1.6884  -1.5400  -1.3696  -0.7804  -0.3527  -0.1238  -0.0362   0.4571
     0.6459   0.7645   1.1575   1.8734   1.9237   2.1283   2.3492   2.3907
     2.4862   2.6821   2.9616   3.0147   3.2433   3.6580   3.7027   3.9053

          k =-0.3333 0.3849-0.3707 (  9090 PWs)   bands (ev):

   -67.5432 -67.5419 -67.5413 -34.3602 -34.3505 -34.3380 -34.3287 -34.3252
   -34.3212 -34.3203 -34.3141 -34.3107 -15.6945 -15.1670 -14.4882 -13.5379
   -13.3604 -13.2617 -12.9388 -12.8728 -12.8439  -4.5100  -3.1971  -2.0646
    -1.6884  -1.5400  -1.3696  -0.7804  -0.3527  -0.1238  -0.0362   0.4571
     0.6459   0.7645   1.1575   1.8734   1.9237   2.1283   2.3492   2.3907
     2.4862   2.6821   2.9616   3.0147   3.2433   3.6580   3.7027   3.9053

          k = 0.3333-0.5774-0.1236 (  9069 PWs)   bands (ev):

   -67.5423 -67.5421 -67.5421 -34.3508 -34.3507 -34.3507 -34.3263 -34.3263
   -34.3214 -34.3188 -34.3120 -34.3119 -15.4468 -15.4468 -14.4961 -13.4031
   -13.3129 -13.3129 -12.9352 -12.9352 -12.9072  -3.8617  -3.8617  -1.8379
    -1.4822  -1.4822  -1.4228  -0.7808  -0.7808  -0.6826  -0.1359   0.7667
     1.1593   1.1593   1.4590   1.4590   1.9783   1.9783   2.0319   2.4583
     2.4583   2.5671   2.6602   3.1428   3.1428   3.7836   3.8479   3.8479

          k = 0.3333-0.5774-0.2471 (  9090 PWs)   bands (ev):

   -67.5423 -67.5421 -67.5421 -34.3508 -34.3507 -34.3507 -34.3263 -34.3263
   -34.3214 -34.3188 -34.3120 -34.3119 -15.4438 -15.4438 -14.4944 -13.4085
   -13.3539 -13.3539 -12.9039 -12.8946 -12.8946  -3.8651  -3.8651  -1.7851
    -1.6587  -1.6587  -1.4225  -0.6286  -0.4411  -0.4411  -0.2785   0.6785
     0.9106   0.9106   1.4621   1.4621   1.9607   1.9607   2.1919   2.5500
     2.5697   2.5697   2.6550   3.1376   3.1376   3.7898   3.8457   3.8457

     highest occupied level (ev):     4.1641

!    total energy              =    -780.26733762 Ry
     estimated scf accuracy    <          4.8E-09 Ry

     The total energy is the sum of the following terms:
     one-electron contribution =    -517.47555350 Ry
     hartree contribution      =     295.30605178 Ry
     xc contribution           =    -134.73624046 Ry
     ewald contribution        =    -337.71081344 Ry
     DFT-D3 Dispersion         =      -0.14631971 Ry
     one-center paw contrib.   =     -85.50446229 Ry

     convergence has been achieved in   4 iterations

     Forces acting on atoms (cartesian axes, Ry/au):

     atom    1 type  1   force =    -0.00000107    0.00000043    0.00076810
     atom    2 type  1   force =     0.00000090   -0.00000072    0.00076810
     atom    3 type  2   force =    -0.00003233    0.00000029   -0.00015602
     atom    4 type  2   force =     0.00001642   -0.00002785   -0.00015602
     atom    5 type  2   force =     0.00001596    0.00002764   -0.00015551
     atom    6 type  3   force =    -0.00000092    0.00000043   -0.00034089
     atom    7 type  3   force =     0.00000084   -0.00000058   -0.00034089
     atom    8 type  3   force =    -0.00004190   -0.00000011    0.00003410
     atom    9 type  3   force =     0.00002086   -0.00003634    0.00003410
     atom   10 type  3   force =     0.00002125    0.00003681    0.00003382
     atom   11 type  3   force =    -0.00003667    0.00000010   -0.00004765
     atom   12 type  3   force =     0.00001842   -0.00003171   -0.00004765
     atom   13 type  3   force =     0.00001814    0.00003142   -0.00004788
     atom   14 type  3   force =     0.00000003    0.00000005    0.00052434
     atom   15 type  4   force =     0.00059719    0.00000009   -0.00043269
     atom   16 type  4   force =    -0.00029852    0.00051722   -0.00043269
     atom   17 type  4   force =    -0.00029861   -0.00051721   -0.00043219
     atom   18 type  4   force =     0.00000002    0.00000003    0.00042751

     Total force =     0.001897     Total SCF correction =     0.000070
     Energy error            =      6.8E-06 Ry
     Gradient error          =      7.7E-04 Ry/Bohr

     bfgs converged in   9 scf cycles and   8 bfgs steps
     (criteria: energy <  1.0E-04 Ry, force <  1.0E-03 Ry/Bohr)

     End of BFGS Geometry Optimization

     Final energy             =    -780.2673376228 Ry

     File ./lisa.bfgs deleted, as requested
Begin final coordinates

ATOMIC_POSITIONS (angstrom)
Si            0.0000009819        3.0461050165        0.5057854666
Si            2.6380038360        1.5230533585        0.5057854666
Mg            1.7456147296       -0.0000002162        3.2943904799
Mg           -0.8728075520        1.5117465929        3.2943904799
Mg            1.7651981459        3.0574128740        3.2943877952
O             0.0000030768        3.0461044136        2.1045411756
O             2.6380022664        1.5230548713        2.1045411756
O             2.7560574276       -0.0000001738        6.9939893146
O            -1.3780288642        2.3868156597        6.9939893146
O             1.2599750655        2.1823408295        6.9939869850
O             3.5132221370       -0.0000003435        4.2632304686
O            -1.7566113660        3.0425394480        4.2632304686
O             0.8813947564        1.5266204995        4.2632296528
O             0.0000001673        0.0000002898        2.1375926112
H             3.4256207947       -0.0000015726        5.2288440831
H            -1.7128117592        2.9666738456        5.2288440831
H             0.9251957402        1.6024860288        5.2288429382
H             0.0000004168        0.0000007219        1.1727659431
End final coordinates



     Writing all to output data dir ./lisa.save/
 
     init_run     :      3.34s CPU      3.44s WALL (       1 calls)
     electrons    :    485.01s CPU    489.03s WALL (       9 calls)
     update_pot   :      1.02s CPU      1.03s WALL (       8 calls)
     forces       :     18.43s CPU     18.60s WALL (       9 calls)
     force_dftd3  :      4.06s CPU      4.17s WALL (       9 calls)

     Called by init_run:
     wfcinit      :      3.08s CPU      3.13s WALL (       1 calls)
     potinit      :      0.07s CPU      0.07s WALL (       1 calls)
     hinit0       :      0.13s CPU      0.16s WALL (       1 calls)

     Called by electrons:
     c_bands      :    432.82s CPU    435.95s WALL (      54 calls)
     sum_band     :     47.23s CPU     47.63s WALL (      54 calls)
     v_of_rho     :      0.27s CPU      0.27s WALL (      57 calls)
     newd         :      1.89s CPU      1.91s WALL (      57 calls)
     PAW_pot      :      1.40s CPU      1.45s WALL (      65 calls)
     mix_rho      :      0.05s CPU      0.05s WALL (      54 calls)
     energy_dftd3 :      1.99s CPU      2.06s WALL (       9 calls)

     Called by c_bands:
     init_us_2    :      3.18s CPU      3.29s WALL (    8568 calls)
     init_us_2:cp :      3.16s CPU      3.28s WALL (    8568 calls)
     cegterg      :    413.73s CPU    416.33s WALL (    3672 calls)

     Called by *egterg:
     cdiaghg      :     39.99s CPU     40.11s WALL (   13467 calls)
     h_psi        :    241.37s CPU    243.48s WALL (   14487 calls)
     s_psi        :     40.33s CPU     40.42s WALL (   14487 calls)
     g_psi        :      0.65s CPU      0.65s WALL (   10747 calls)

     Called by h_psi:
     h_psi:calbec :     47.53s CPU     47.75s WALL (   14487 calls)
     vloc_psi     :    151.49s CPU    153.27s WALL (   14487 calls)
     add_vuspsi   :     41.29s CPU     41.39s WALL (   14487 calls)

     General routines
     calbec       :     76.07s CPU     76.41s WALL (   21151 calls)
     fft          :      0.30s CPU      0.31s WALL (     740 calls)
     ffts         :      0.01s CPU      0.01s WALL (      54 calls)
     fftw         :    168.95s CPU    170.93s WALL ( 1184660 calls)
 
     Parallel routines
 
     PWSCF        :   8m31.78s CPU   8m38.16s WALL

 
   This run was terminated on:  18:34:25  12May2023            

=------------------------------------------------------------------------------=
   JOB DONE.
=------------------------------------------------------------------------------=
